ITEM: TIMESTEP
8000
ITEM: NUMBER OF ENTRIES
71760
ITEM: BOX BOUNDS pp pp pp
-1347.04 1347.04
-1347.04 1347.04
-1347.04 1347.04
ITEM: ENTRIES index c_bnd[1] c_bnd[2] c_bnd[3] c_bt 
1 1 12044 12045 5.28743 
2 1 12044 12104 5.05139 
3 1 12044 12105 7.31255 
4 1 45 46 5.11114 
5 1 45 105 5.05139 
6 1 45 106 7.18611 
7 1 12045 12046 5.28742 
8 1 12045 12105 5.05139 
9 1 12045 12106 7.31254 
10 1 46 47 5.11114 
11 1 46 106 5.05139 
12 1 46 107 7.18611 
13 1 12046 12047 5.28742 
14 1 12046 12106 5.05139 
15 1 12046 12107 7.31254 
16 1 47 48 5.11112 
17 1 47 107 5.05139 
18 1 47 108 7.1861 
19 1 12047 12048 5.28743 
20 1 12047 12107 5.05139 
21 1 12047 12108 7.31255 
22 1 12048 12049 5.28743 
23 1 12048 12108 5.05139 
24 1 12048 12109 7.31255 
25 1 12041 12042 5.28743 
26 1 12041 12101 5.05139 
27 1 12041 12102 7.31254 
28 1 12042 12043 5.28743 
29 1 12042 12102 5.05139 
30 1 12042 12103 7.31255 
31 1 42 43 5.11113 
32 1 42 102 5.05139 
33 1 42 103 7.18611 
34 1 12043 12044 5.28743 
35 1 12043 12103 5.05139 
36 1 12043 12104 7.31255 
37 1 43 44 5.11112 
38 1 43 103 5.05139 
39 1 43 104 7.1861 
40 1 44 45 5.11112 
41 1 44 104 5.05139 
42 1 44 105 7.1861 
43 1 48 49 5.11112 
44 1 48 108 5.05139 
45 1 48 109 7.1861 
46 1 49 50 5.11113 
47 1 49 109 5.05139 
48 1 49 110 7.18611 
49 1 50 51 5.11114 
50 1 50 110 5.05139 
51 1 50 111 7.18611 
52 1 12049 12050 5.28743 
53 1 12049 12109 5.05139 
54 1 12049 12110 7.31255 
55 1 12050 12051 5.28743 
56 1 12050 12110 5.05139 
57 1 12050 12111 7.31254 
58 1 12051 12052 5.28743 
59 1 12051 12111 5.05139 
60 1 12051 12112 7.31255 
61 1 12039 12040 5.28743 
62 1 12039 12099 5.05139 
63 1 12039 12100 7.31255 
64 1 12040 12041 5.28743 
65 1 12040 12100 5.05139 
66 1 12040 12101 7.31255 
67 1 40 41 5.11113 
68 1 40 100 5.05139 
69 1 40 101 7.18611 
70 1 41 42 5.11114 
71 1 41 101 5.05139 
72 1 41 102 7.18611 
73 1 51 52 5.11113 
74 1 51 111 5.05139 
75 1 51 112 7.18611 
76 1 12052 12053 5.28743 
77 1 12052 12112 5.05139 
78 1 12052 12113 7.31255 
79 1 52 53 5.11114 
80 1 52 112 5.05139 
81 1 52 113 7.18611 
82 1 12053 12054 5.28741 
83 1 12053 12113 5.05139 
84 1 12053 12114 7.31254 
85 1 38 39 5.11113 
86 1 38 98 5.05139 
87 1 38 99 7.1861 
88 1 12038 12039 5.28741 
89 1 12038 12098 5.05139 
90 1 12038 12099 7.31254 
91 1 39 40 5.11114 
92 1 39 99 5.05139 
93 1 39 100 7.18611 
94 1 53 54 5.11113 
95 1 53 113 5.05139 
96 1 53 114 7.1861 
97 1 54 55 5.11114 
98 1 54 114 5.05139 
99 1 54 115 7.18611 
100 1 12054 12055 5.28743 
101 1 12054 12114 5.05139 
102 1 12054 12115 7.31255 
103 1 36 37 5.11113 
104 1 36 96 5.05139 
105 1 36 97 7.18611 
106 1 12036 12037 5.28743 
107 1 12036 12096 5.05139 
108 1 12036 12097 7.31255 
109 1 12037 12038 5.28743 
110 1 12037 12097 5.05139 
111 1 12037 12098 7.31255 
112 1 37 38 5.11114 
113 1 37 97 5.05139 
114 1 37 98 7.18611 
115 1 55 56 5.11113 
116 1 55 115 5.05139 
117 1 55 116 7.18611 
118 1 56 57 5.11114 
119 1 56 116 5.05139 
120 1 56 117 7.18611 
121 1 12055 12056 5.28743 
122 1 12055 12115 5.05139 
123 1 12055 12116 7.31255 
124 1 12056 12057 5.28743 
125 1 12056 12116 5.05139 
126 1 12056 12117 7.31254 
127 1 12035 12036 5.28743 
128 1 12035 12095 5.05139 
129 1 12035 12096 7.31254 
130 1 35 36 5.11114 
131 1 35 95 5.05139 
132 1 35 96 7.18611 
133 1 57 58 5.11113 
134 1 57 117 5.05139 
135 1 57 118 7.18611 
136 1 12057 12058 5.28743 
137 1 12057 12117 5.05139 
138 1 12057 12118 7.31255 
139 1 34 35 5.11113 
140 1 34 94 5.05139 
141 1 34 95 7.18611 
142 1 12034 12035 5.28743 
143 1 12034 12094 5.05139 
144 1 12034 12095 7.31255 
145 1 58 59 5.11112 
146 1 58 118 5.05139 
147 1 58 119 7.1861 
148 1 12058 12059 5.28743 
149 1 12058 12118 5.05139 
150 1 12058 12119 7.31255 
151 1 12033 12034 5.28743 
152 1 12033 12093 5.05139 
153 1 12033 12094 7.31255 
154 1 33 34 5.11112 
155 1 33 93 5.05139 
156 1 33 94 7.1861 
157 1 12059 12060 5.28743 
158 1 12059 12119 5.05139 
159 1 12059 12120 7.31255 
160 1 59 60 5.11112 
161 1 59 119 5.05139 
162 1 59 120 7.1861 
163 1 32 33 5.11112 
164 1 32 92 5.05139 
165 1 32 93 7.1861 
166 1 12032 12033 5.28743 
167 1 12032 12092 5.05139 
168 1 12032 12093 7.31255 
169 1 31 32 5.11114 
170 1 31 91 5.05139 
171 1 31 92 7.18611 
172 1 12031 12032 5.28742 
173 1 12031 12091 5.05139 
174 1 12031 12092 7.31254 
175 1 60 120 5.05139 
176 1 60 61 7.18611 
177 1 12060 12120 5.05139 
178 1 12060 12061 7.31254 
179 1 12104 12105 5.28743 
180 1 12104 12164 5.05141 
181 1 12104 12165 7.31257 
182 1 12164 12165 5.28743 
183 1 12164 12224 5.05141 
184 1 12164 12225 7.31257 
185 1 105 106 5.11114 
186 1 105 165 5.05141 
187 1 105 166 7.18613 
188 1 12105 12106 5.28742 
189 1 12105 12165 5.05141 
190 1 12105 12166 7.31256 
191 1 165 166 5.11114 
192 1 165 225 5.05141 
193 1 165 226 7.18613 
194 1 12165 12166 5.28742 
195 1 12165 12225 5.05141 
196 1 12165 12226 7.31256 
197 1 106 107 5.11114 
198 1 106 166 5.05141 
199 1 106 167 7.18613 
200 1 12106 12107 5.28742 
201 1 12106 12166 5.05141 
202 1 12106 12167 7.31256 
203 1 166 167 5.11114 
204 1 166 226 5.05141 
205 1 166 227 7.18613 
206 1 12166 12167 5.28742 
207 1 12166 12226 5.05141 
208 1 12166 12227 7.31256 
209 1 107 108 5.11112 
210 1 107 167 5.05141 
211 1 107 168 7.18612 
212 1 12107 12108 5.28743 
213 1 12107 12167 5.05141 
214 1 12107 12168 7.31257 
215 1 167 168 5.11112 
216 1 167 227 5.05141 
217 1 167 228 7.18612 
218 1 12167 12168 5.28743 
219 1 12167 12227 5.05141 
220 1 12167 12228 7.31257 
221 1 12108 12109 5.28743 
222 1 12108 12168 5.05141 
223 1 12108 12169 7.31256 
224 1 12168 12169 5.28743 
225 1 12168 12228 5.05141 
226 1 12168 12229 7.31256 
227 1 12101 12102 5.28743 
228 1 12101 12161 5.05141 
229 1 12101 12162 7.31256 
230 1 12161 12162 5.28743 
231 1 12161 12221 5.05141 
232 1 12161 12222 7.31256 
233 1 12102 12103 5.28743 
234 1 12102 12162 5.05141 
235 1 12102 12163 7.31257 
236 1 102 103 5.11113 
237 1 102 162 5.05141 
238 1 102 163 7.18612 
239 1 12103 12104 5.28743 
240 1 12103 12163 5.05141 
241 1 12103 12164 7.31256 
242 1 12162 12163 5.28743 
243 1 12162 12222 5.05141 
244 1 12162 12223 7.31257 
245 1 162 163 5.11113 
246 1 162 222 5.05141 
247 1 162 223 7.18612 
248 1 12163 12164 5.28743 
249 1 12163 12223 5.05141 
250 1 12163 12224 7.31256 
251 1 103 104 5.11112 
252 1 103 163 5.05141 
253 1 103 164 7.18612 
254 1 104 105 5.11112 
255 1 104 164 5.05141 
256 1 104 165 7.18612 
257 1 163 164 5.11112 
258 1 163 223 5.05141 
259 1 163 224 7.18612 
260 1 164 165 5.11112 
261 1 164 224 5.05141 
262 1 164 225 7.18612 
263 1 108 109 5.11112 
264 1 108 168 5.05141 
265 1 108 169 7.18612 
266 1 109 110 5.11113 
267 1 109 169 5.05141 
268 1 109 170 7.18612 
269 1 168 169 5.11112 
270 1 168 228 5.05141 
271 1 168 229 7.18612 
272 1 169 170 5.11113 
273 1 169 229 5.05141 
274 1 169 230 7.18612 
275 1 110 111 5.11114 
276 1 110 170 5.05141 
277 1 110 171 7.18613 
278 1 12109 12110 5.28743 
279 1 12109 12169 5.05141 
280 1 12109 12170 7.31257 
281 1 12110 12111 5.28743 
282 1 12110 12170 5.05141 
283 1 12110 12171 7.31256 
284 1 170 171 5.11114 
285 1 170 230 5.05141 
286 1 170 231 7.18613 
287 1 12169 12170 5.28743 
288 1 12169 12229 5.05141 
289 1 12169 12230 7.31257 
290 1 12170 12171 5.28743 
291 1 12170 12230 5.05141 
292 1 12170 12231 7.31256 
293 1 12111 12112 5.28743 
294 1 12111 12171 5.05141 
295 1 12111 12172 7.31257 
296 1 12171 12172 5.28743 
297 1 12171 12231 5.05141 
298 1 12171 12232 7.31257 
299 1 12099 12100 5.28743 
300 1 12099 12159 5.05141 
301 1 12099 12160 7.31257 
302 1 12159 12160 5.28743 
303 1 12159 12219 5.05141 
304 1 12159 12220 7.31257 
305 1 12100 12101 5.28743 
306 1 12100 12160 5.05141 
307 1 12100 12161 7.31257 
308 1 100 101 5.11113 
309 1 100 160 5.05141 
310 1 100 161 7.18613 
311 1 12160 12161 5.28743 
312 1 12160 12220 5.05141 
313 1 12160 12221 7.31257 
314 1 160 161 5.11113 
315 1 160 220 5.05141 
316 1 160 221 7.18613 
317 1 101 102 5.11114 
318 1 101 161 5.05141 
319 1 101 162 7.18613 
320 1 161 162 5.11114 
321 1 161 221 5.05141 
322 1 161 222 7.18613 
323 1 111 112 5.11113 
324 1 111 171 5.05141 
325 1 111 172 7.18613 
326 1 171 172 5.11113 
327 1 171 231 5.05141 
328 1 171 232 7.18613 
329 1 12112 12113 5.28743 
330 1 12112 12172 5.05141 
331 1 12112 12173 7.31257 
332 1 112 113 5.11114 
333 1 112 172 5.05141 
334 1 112 173 7.18613 
335 1 12172 12173 5.28743 
336 1 12172 12232 5.05141 
337 1 12172 12233 7.31257 
338 1 172 173 5.11114 
339 1 172 232 5.05141 
340 1 172 233 7.18613 
341 1 12113 12114 5.28741 
342 1 12113 12173 5.05141 
343 1 12113 12174 7.31255 
344 1 12173 12174 5.28741 
345 1 12173 12233 5.05141 
346 1 12173 12234 7.31255 
347 1 98 99 5.11113 
348 1 98 158 5.05141 
349 1 98 159 7.18612 
350 1 12098 12099 5.28741 
351 1 12098 12158 5.05141 
352 1 12098 12159 7.31255 
353 1 158 159 5.11113 
354 1 158 218 5.05141 
355 1 158 219 7.18612 
356 1 12158 12159 5.28741 
357 1 12158 12218 5.05141 
358 1 12158 12219 7.31255 
359 1 99 100 5.11114 
360 1 99 159 5.05141 
361 1 99 160 7.18613 
362 1 159 160 5.11114 
363 1 159 219 5.05141 
364 1 159 220 7.18613 
365 1 113 114 5.11113 
366 1 113 173 5.05141 
367 1 113 174 7.18612 
368 1 173 174 5.11113 
369 1 173 233 5.05141 
370 1 173 234 7.18612 
371 1 114 115 5.11114 
372 1 114 174 5.05141 
373 1 114 175 7.18613 
374 1 12114 12115 5.28743 
375 1 12114 12174 5.05141 
376 1 12114 12175 7.31257 
377 1 174 175 5.11114 
378 1 174 234 5.05141 
379 1 174 235 7.18613 
380 1 12174 12175 5.28743 
381 1 12174 12234 5.05141 
382 1 12174 12235 7.31257 
383 1 96 97 5.11113 
384 1 96 156 5.05141 
385 1 96 157 7.18613 
386 1 12096 12097 5.28743 
387 1 12096 12156 5.05141 
388 1 12096 12157 7.31257 
389 1 12097 12098 5.28743 
390 1 12097 12157 5.05141 
391 1 12097 12158 7.31257 
392 1 97 98 5.11114 
393 1 97 157 5.05141 
394 1 97 158 7.18613 
395 1 156 157 5.11113 
396 1 156 216 5.05141 
397 1 156 217 7.18613 
398 1 12156 12157 5.28743 
399 1 12156 12216 5.05141 
400 1 12156 12217 7.31257 
401 1 12157 12158 5.28743 
402 1 12157 12217 5.05141 
403 1 12157 12218 7.31257 
404 1 157 158 5.11114 
405 1 157 217 5.05141 
406 1 157 218 7.18613 
407 1 115 116 5.11113 
408 1 115 175 5.05141 
409 1 115 176 7.18613 
410 1 116 117 5.11114 
411 1 116 176 5.05141 
412 1 116 177 7.18613 
413 1 12115 12116 5.28743 
414 1 12115 12175 5.05141 
415 1 12115 12176 7.31257 
416 1 12116 12117 5.28743 
417 1 12116 12176 5.05141 
418 1 12116 12177 7.31256 
419 1 175 176 5.11113 
420 1 175 235 5.05141 
421 1 175 236 7.18613 
422 1 176 177 5.11114 
423 1 176 236 5.05141 
424 1 176 237 7.18613 
425 1 12175 12176 5.28743 
426 1 12175 12235 5.05141 
427 1 12175 12236 7.31257 
428 1 12176 12177 5.28743 
429 1 12176 12236 5.05141 
430 1 12176 12237 7.31256 
431 1 12095 12096 5.28743 
432 1 12095 12155 5.05141 
433 1 12095 12156 7.31256 
434 1 12155 12156 5.28743 
435 1 12155 12215 5.05141 
436 1 12155 12216 7.31256 
437 1 95 96 5.11114 
438 1 95 155 5.05141 
439 1 95 156 7.18613 
440 1 155 156 5.11114 
441 1 155 215 5.05141 
442 1 155 216 7.18613 
443 1 117 118 5.11113 
444 1 117 177 5.05141 
445 1 117 178 7.18612 
446 1 177 178 5.11113 
447 1 177 237 5.05141 
448 1 177 238 7.18612 
449 1 12117 12118 5.28743 
450 1 12117 12177 5.05141 
451 1 12117 12178 7.31257 
452 1 12177 12178 5.28743 
453 1 12177 12237 5.05141 
454 1 12177 12238 7.31257 
455 1 94 95 5.11113 
456 1 94 154 5.05141 
457 1 94 155 7.18612 
458 1 12094 12095 5.28743 
459 1 12094 12154 5.05141 
460 1 12094 12155 7.31257 
461 1 154 155 5.11113 
462 1 154 214 5.05141 
463 1 154 215 7.18612 
464 1 12154 12155 5.28743 
465 1 12154 12214 5.05141 
466 1 12154 12215 7.31257 
467 1 118 119 5.11112 
468 1 118 178 5.05141 
469 1 118 179 7.18612 
470 1 12118 12119 5.28743 
471 1 12118 12178 5.05141 
472 1 12118 12179 7.31256 
473 1 178 179 5.11112 
474 1 178 238 5.05141 
475 1 178 239 7.18612 
476 1 12178 12179 5.28743 
477 1 12178 12238 5.05141 
478 1 12178 12239 7.31256 
479 1 12093 12094 5.28743 
480 1 12093 12153 5.05141 
481 1 12093 12154 7.31256 
482 1 93 94 5.11112 
483 1 93 153 5.05141 
484 1 93 154 7.18612 
485 1 12153 12154 5.28743 
486 1 12153 12213 5.05141 
487 1 12153 12214 7.31256 
488 1 153 154 5.11112 
489 1 153 213 5.05141 
490 1 153 214 7.18612 
491 1 12119 12120 5.28743 
492 1 12119 12179 5.05141 
493 1 12119 12180 7.31257 
494 1 119 120 5.11112 
495 1 119 179 5.05141 
496 1 119 180 7.18612 
497 1 12179 12180 5.28743 
498 1 12179 12239 5.05141 
499 1 12179 12240 7.31257 
500 1 179 180 5.11112 
501 1 179 239 5.05141 
502 1 179 240 7.18612 
503 1 92 93 5.11112 
504 1 92 152 5.05141 
505 1 92 153 7.18612 
506 1 12092 12093 5.28743 
507 1 12092 12152 5.05141 
508 1 12092 12153 7.31257 
509 1 152 153 5.11112 
510 1 152 212 5.05141 
511 1 152 213 7.18612 
512 1 12152 12153 5.28743 
513 1 12152 12212 5.05141 
514 1 12152 12213 7.31257 
515 1 91 92 5.11114 
516 1 91 151 5.05141 
517 1 91 152 7.18613 
518 1 151 152 5.11114 
519 1 151 211 5.05141 
520 1 151 212 7.18613 
521 1 12151 12152 5.28742 
522 1 12151 12211 5.05141 
523 1 12151 12212 7.31256 
524 1 12091 12092 5.28742 
525 1 12091 12151 5.05141 
526 1 12091 12152 7.31256 
527 1 120 180 5.05141 
528 1 120 121 7.18613 
529 1 12120 12180 5.05141 
530 1 12120 12121 7.31256 
531 1 180 240 5.05141 
532 1 180 181 7.18613 
533 1 12180 12240 5.05141 
534 1 12180 12181 7.31256 
535 1 12061 12062 5.28742 
536 1 12061 12120 5.28742 
537 1 12061 12121 5.05141 
538 1 12061 12122 7.31256 
539 1 121 122 5.11114 
540 1 121 180 5.11114 
541 1 121 181 5.05141 
542 1 121 182 7.18613 
543 1 12121 12122 5.28742 
544 1 12121 12180 5.28742 
545 1 12121 12181 5.05141 
546 1 12121 12182 7.31256 
547 1 61 62 5.11114 
548 1 61 120 5.11114 
549 1 61 121 5.05141 
550 1 61 122 7.18613 
551 1 12224 12225 5.28743 
552 1 12224 12284 5.05141 
553 1 12224 12285 7.31257 
554 1 225 226 5.11114 
555 1 225 285 5.05141 
556 1 225 286 7.18613 
557 1 12225 12226 5.28742 
558 1 12225 12285 5.05141 
559 1 12225 12286 7.31256 
560 1 226 227 5.11114 
561 1 226 286 5.05141 
562 1 226 287 7.18613 
563 1 12226 12227 5.28742 
564 1 12226 12286 5.05141 
565 1 12226 12287 7.31256 
566 1 227 228 5.11112 
567 1 227 287 5.05141 
568 1 227 288 7.18612 
569 1 12227 12228 5.28743 
570 1 12227 12287 5.05141 
571 1 12227 12288 7.31257 
572 1 12228 12229 5.28743 
573 1 12228 12288 5.05141 
574 1 12228 12289 7.31256 
575 1 12221 12222 5.28743 
576 1 12221 12281 5.05141 
577 1 12221 12282 7.31256 
578 1 12222 12223 5.28743 
579 1 12222 12282 5.05141 
580 1 12222 12283 7.31257 
581 1 222 223 5.11113 
582 1 222 282 5.05141 
583 1 222 283 7.18612 
584 1 12223 12224 5.28743 
585 1 12223 12283 5.05141 
586 1 12223 12284 7.31256 
587 1 223 224 5.11112 
588 1 223 283 5.05141 
589 1 223 284 7.18612 
590 1 224 225 5.11112 
591 1 224 284 5.05141 
592 1 224 285 7.18612 
593 1 228 229 5.11112 
594 1 228 288 5.05141 
595 1 228 289 7.18612 
596 1 229 230 5.11113 
597 1 229 289 5.05141 
598 1 229 290 7.18612 
599 1 230 231 5.11114 
600 1 230 290 5.05141 
601 1 230 291 7.18613 
602 1 12229 12230 5.28743 
603 1 12229 12289 5.05141 
604 1 12229 12290 7.31257 
605 1 12230 12231 5.28743 
606 1 12230 12290 5.05141 
607 1 12230 12291 7.31256 
608 1 12231 12232 5.28743 
609 1 12231 12291 5.05141 
610 1 12231 12292 7.31257 
611 1 12219 12220 5.28743 
612 1 12219 12279 5.05141 
613 1 12219 12280 7.31257 
614 1 12220 12221 5.28743 
615 1 12220 12280 5.05141 
616 1 12220 12281 7.31257 
617 1 220 221 5.11113 
618 1 220 280 5.05141 
619 1 220 281 7.18613 
620 1 221 222 5.11114 
621 1 221 281 5.05141 
622 1 221 282 7.18613 
623 1 231 232 5.11113 
624 1 231 291 5.05141 
625 1 231 292 7.18613 
626 1 12232 12233 5.28743 
627 1 12232 12292 5.05141 
628 1 12232 12293 7.31257 
629 1 232 233 5.11114 
630 1 232 292 5.05141 
631 1 232 293 7.18613 
632 1 12233 12234 5.28741 
633 1 12233 12293 5.05141 
634 1 12233 12294 7.31255 
635 1 218 219 5.11113 
636 1 218 278 5.05141 
637 1 218 279 7.18612 
638 1 12218 12219 5.28741 
639 1 12218 12278 5.05141 
640 1 12218 12279 7.31255 
641 1 219 220 5.11114 
642 1 219 279 5.05141 
643 1 219 280 7.18613 
644 1 233 234 5.11113 
645 1 233 293 5.05141 
646 1 233 294 7.18612 
647 1 234 235 5.11114 
648 1 234 294 5.05141 
649 1 234 295 7.18613 
650 1 12234 12235 5.28743 
651 1 12234 12294 5.05141 
652 1 12234 12295 7.31257 
653 1 216 217 5.11113 
654 1 216 276 5.05141 
655 1 216 277 7.18613 
656 1 12216 12217 5.28743 
657 1 12216 12276 5.05141 
658 1 12216 12277 7.31257 
659 1 12217 12218 5.28743 
660 1 12217 12277 5.05141 
661 1 12217 12278 7.31257 
662 1 217 218 5.11114 
663 1 217 277 5.05141 
664 1 217 278 7.18613 
665 1 235 236 5.11113 
666 1 235 295 5.05141 
667 1 235 296 7.18613 
668 1 236 237 5.11114 
669 1 236 296 5.05141 
670 1 236 297 7.18613 
671 1 12235 12236 5.28743 
672 1 12235 12295 5.05141 
673 1 12235 12296 7.31257 
674 1 12236 12237 5.28743 
675 1 12236 12296 5.05141 
676 1 12236 12297 7.31256 
677 1 12215 12216 5.28743 
678 1 12215 12275 5.05141 
679 1 12215 12276 7.31256 
680 1 215 216 5.11114 
681 1 215 275 5.05141 
682 1 215 276 7.18613 
683 1 237 238 5.11113 
684 1 237 297 5.05141 
685 1 237 298 7.18612 
686 1 12237 12238 5.28743 
687 1 12237 12297 5.05141 
688 1 12237 12298 7.31257 
689 1 214 215 5.11113 
690 1 214 274 5.05141 
691 1 214 275 7.18612 
692 1 12214 12215 5.28743 
693 1 12214 12274 5.05141 
694 1 12214 12275 7.31257 
695 1 238 239 5.11112 
696 1 238 298 5.05141 
697 1 238 299 7.18612 
698 1 12238 12239 5.28743 
699 1 12238 12298 5.05141 
700 1 12238 12299 7.31256 
701 1 12213 12214 5.28743 
702 1 12213 12273 5.05141 
703 1 12213 12274 7.31256 
704 1 213 214 5.11112 
705 1 213 273 5.05141 
706 1 213 274 7.18612 
707 1 12239 12240 5.28743 
708 1 12239 12299 5.05141 
709 1 12239 12300 7.31257 
710 1 239 240 5.11112 
711 1 239 299 5.05141 
712 1 239 300 7.18612 
713 1 212 213 5.11112 
714 1 212 272 5.05141 
715 1 212 273 7.18612 
716 1 12212 12213 5.28743 
717 1 12212 12272 5.05141 
718 1 12212 12273 7.31257 
719 1 211 212 5.11114 
720 1 211 271 5.05141 
721 1 211 272 7.18613 
722 1 12211 12212 5.28742 
723 1 12211 12271 5.05141 
724 1 12211 12272 7.31256 
725 1 240 300 5.05141 
726 1 240 241 7.18613 
727 1 12240 12300 5.05141 
728 1 12240 12241 7.31256 
729 1 181 182 5.11114 
730 1 181 240 5.11114 
731 1 181 241 5.05141 
732 1 181 242 7.18613 
733 1 12181 12182 5.28742 
734 1 12181 12240 5.28742 
735 1 12181 12241 5.05141 
736 1 12181 12242 7.31256 
737 1 12284 12285 5.28743 
738 1 12284 12344 5.05141 
739 1 12284 12345 7.31257 
740 1 285 286 5.11114 
741 1 285 345 5.05141 
742 1 285 346 7.18613 
743 1 12285 12286 5.28742 
744 1 12285 12345 5.05141 
745 1 12285 12346 7.31256 
746 1 286 287 5.11114 
747 1 286 346 5.05141 
748 1 286 347 7.18613 
749 1 12286 12287 5.28742 
750 1 12286 12346 5.05141 
751 1 12286 12347 7.31256 
752 1 287 288 5.11112 
753 1 287 347 5.05141 
754 1 287 348 7.18612 
755 1 12287 12288 5.28743 
756 1 12287 12347 5.05141 
757 1 12287 12348 7.31257 
758 1 12288 12289 5.28743 
759 1 12288 12348 5.05141 
760 1 12288 12349 7.31256 
761 1 12281 12282 5.28743 
762 1 12281 12341 5.05141 
763 1 12281 12342 7.31256 
764 1 12282 12283 5.28743 
765 1 12282 12342 5.05141 
766 1 12282 12343 7.31257 
767 1 282 283 5.11113 
768 1 282 342 5.05141 
769 1 282 343 7.18612 
770 1 12283 12284 5.28743 
771 1 12283 12343 5.05141 
772 1 12283 12344 7.31256 
773 1 283 284 5.11112 
774 1 283 343 5.05141 
775 1 283 344 7.18612 
776 1 284 285 5.11112 
777 1 284 344 5.05141 
778 1 284 345 7.18612 
779 1 288 289 5.11112 
780 1 288 348 5.05141 
781 1 288 349 7.18612 
782 1 289 290 5.11113 
783 1 289 349 5.05141 
784 1 289 350 7.18612 
785 1 290 291 5.11114 
786 1 290 350 5.05141 
787 1 290 351 7.18613 
788 1 12289 12290 5.28743 
789 1 12289 12349 5.05141 
790 1 12289 12350 7.31257 
791 1 12290 12291 5.28743 
792 1 12290 12350 5.05141 
793 1 12290 12351 7.31256 
794 1 12291 12292 5.28743 
795 1 12291 12351 5.05141 
796 1 12291 12352 7.31257 
797 1 12279 12280 5.28743 
798 1 12279 12339 5.05141 
799 1 12279 12340 7.31257 
800 1 12280 12281 5.28743 
801 1 12280 12340 5.05141 
802 1 12280 12341 7.31257 
803 1 280 281 5.11113 
804 1 280 340 5.05141 
805 1 280 341 7.18613 
806 1 281 282 5.11114 
807 1 281 341 5.05141 
808 1 281 342 7.18613 
809 1 291 292 5.11113 
810 1 291 351 5.05141 
811 1 291 352 7.18613 
812 1 12292 12293 5.28743 
813 1 12292 12352 5.05141 
814 1 12292 12353 7.31257 
815 1 292 293 5.11114 
816 1 292 352 5.05141 
817 1 292 353 7.18613 
818 1 12293 12294 5.28741 
819 1 12293 12353 5.05141 
820 1 12293 12354 7.31255 
821 1 278 279 5.11113 
822 1 278 338 5.05141 
823 1 278 339 7.18612 
824 1 12278 12279 5.28741 
825 1 12278 12338 5.05141 
826 1 12278 12339 7.31255 
827 1 279 280 5.11114 
828 1 279 339 5.05141 
829 1 279 340 7.18613 
830 1 293 294 5.11113 
831 1 293 353 5.05141 
832 1 293 354 7.18612 
833 1 294 295 5.11114 
834 1 294 354 5.05141 
835 1 294 355 7.18613 
836 1 12294 12295 5.28743 
837 1 12294 12354 5.05141 
838 1 12294 12355 7.31257 
839 1 276 277 5.11113 
840 1 276 336 5.05141 
841 1 276 337 7.18613 
842 1 12276 12277 5.28743 
843 1 12276 12336 5.05141 
844 1 12276 12337 7.31257 
845 1 12277 12278 5.28743 
846 1 12277 12337 5.05141 
847 1 12277 12338 7.31257 
848 1 277 278 5.11114 
849 1 277 337 5.05141 
850 1 277 338 7.18613 
851 1 295 296 5.11113 
852 1 295 355 5.05141 
853 1 295 356 7.18613 
854 1 296 297 5.11114 
855 1 296 356 5.05141 
856 1 296 357 7.18613 
857 1 12295 12296 5.28743 
858 1 12295 12355 5.05141 
859 1 12295 12356 7.31257 
860 1 12296 12297 5.28743 
861 1 12296 12356 5.05141 
862 1 12296 12357 7.31256 
863 1 12275 12276 5.28743 
864 1 12275 12335 5.05141 
865 1 12275 12336 7.31256 
866 1 275 276 5.11114 
867 1 275 335 5.05141 
868 1 275 336 7.18613 
869 1 297 298 5.11113 
870 1 297 357 5.05141 
871 1 297 358 7.18612 
872 1 12297 12298 5.28743 
873 1 12297 12357 5.05141 
874 1 12297 12358 7.31257 
875 1 274 275 5.11113 
876 1 274 334 5.05141 
877 1 274 335 7.18612 
878 1 12274 12275 5.28743 
879 1 12274 12334 5.05141 
880 1 12274 12335 7.31257 
881 1 298 299 5.11112 
882 1 298 358 5.05141 
883 1 298 359 7.18612 
884 1 12298 12299 5.28743 
885 1 12298 12358 5.05141 
886 1 12298 12359 7.31256 
887 1 12273 12274 5.28743 
888 1 12273 12333 5.05141 
889 1 12273 12334 7.31256 
890 1 273 274 5.11112 
891 1 273 333 5.05141 
892 1 273 334 7.18612 
893 1 12299 12300 5.28743 
894 1 12299 12359 5.05141 
895 1 12299 12360 7.31257 
896 1 299 300 5.11112 
897 1 299 359 5.05141 
898 1 299 360 7.18612 
899 1 272 273 5.11112 
900 1 272 332 5.05141 
901 1 272 333 7.18612 
902 1 12272 12273 5.28743 
903 1 12272 12332 5.05141 
904 1 12272 12333 7.31257 
905 1 271 272 5.11114 
906 1 271 331 5.05141 
907 1 271 332 7.18613 
908 1 12271 12272 5.28742 
909 1 12271 12331 5.05141 
910 1 12271 12332 7.31256 
911 1 300 360 5.05141 
912 1 300 301 7.18613 
913 1 12300 12360 5.05141 
914 1 12300 12301 7.31256 
915 1 241 242 5.11114 
916 1 241 300 5.11114 
917 1 241 301 5.05141 
918 1 241 302 7.18613 
919 1 12241 12242 5.28742 
920 1 12241 12300 5.28742 
921 1 12241 12301 5.05141 
922 1 12241 12302 7.31256 
923 1 12344 12345 5.28743 
924 1 12344 12404 5.05141 
925 1 12344 12405 7.31257 
926 1 345 346 5.11114 
927 1 345 405 5.05141 
928 1 345 406 7.18613 
929 1 12345 12346 5.28742 
930 1 12345 12405 5.05141 
931 1 12345 12406 7.31256 
932 1 346 347 5.11114 
933 1 346 406 5.05141 
934 1 346 407 7.18613 
935 1 12346 12347 5.28742 
936 1 12346 12406 5.05141 
937 1 12346 12407 7.31256 
938 1 347 348 5.11112 
939 1 347 407 5.05141 
940 1 347 408 7.18612 
941 1 12347 12348 5.28743 
942 1 12347 12407 5.05141 
943 1 12347 12408 7.31257 
944 1 12348 12349 5.28743 
945 1 12348 12408 5.05141 
946 1 12348 12409 7.31256 
947 1 12341 12342 5.28743 
948 1 12341 12401 5.05141 
949 1 12341 12402 7.31256 
950 1 12342 12343 5.28743 
951 1 12342 12402 5.05141 
952 1 12342 12403 7.31257 
953 1 342 343 5.11113 
954 1 342 402 5.05141 
955 1 342 403 7.18612 
956 1 12343 12344 5.28743 
957 1 12343 12403 5.05141 
958 1 12343 12404 7.31256 
959 1 343 344 5.11112 
960 1 343 403 5.05141 
961 1 343 404 7.18612 
962 1 344 345 5.11112 
963 1 344 404 5.05141 
964 1 344 405 7.18612 
965 1 348 349 5.11112 
966 1 348 408 5.05141 
967 1 348 409 7.18612 
968 1 349 350 5.11113 
969 1 349 409 5.05141 
970 1 349 410 7.18612 
971 1 350 351 5.11114 
972 1 350 410 5.05141 
973 1 350 411 7.18613 
974 1 12349 12350 5.28743 
975 1 12349 12409 5.05141 
976 1 12349 12410 7.31257 
977 1 12350 12351 5.28743 
978 1 12350 12410 5.05141 
979 1 12350 12411 7.31256 
980 1 12351 12352 5.28743 
981 1 12351 12411 5.05141 
982 1 12351 12412 7.31257 
983 1 12339 12340 5.28743 
984 1 12339 12399 5.05141 
985 1 12339 12400 7.31257 
986 1 12340 12341 5.28743 
987 1 12340 12400 5.05141 
988 1 12340 12401 7.31257 
989 1 340 341 5.11113 
990 1 340 400 5.05141 
991 1 340 401 7.18613 
992 1 341 342 5.11114 
993 1 341 401 5.05141 
994 1 341 402 7.18613 
995 1 351 352 5.11113 
996 1 351 411 5.05141 
997 1 351 412 7.18613 
998 1 12352 12353 5.28743 
999 1 12352 12412 5.05141 
1000 1 12352 12413 7.31257 
1001 1 352 353 5.11114 
1002 1 352 412 5.05141 
1003 1 352 413 7.18613 
1004 1 12353 12354 5.28741 
1005 1 12353 12413 5.05141 
1006 1 12353 12414 7.31255 
1007 1 338 339 5.11113 
1008 1 338 398 5.05141 
1009 1 338 399 7.18612 
1010 1 12338 12339 5.28741 
1011 1 12338 12398 5.05141 
1012 1 12338 12399 7.31255 
1013 1 339 340 5.11114 
1014 1 339 399 5.05141 
1015 1 339 400 7.18613 
1016 1 353 354 5.11113 
1017 1 353 413 5.05141 
1018 1 353 414 7.18612 
1019 1 354 355 5.11114 
1020 1 354 414 5.05141 
1021 1 354 415 7.18613 
1022 1 12354 12355 5.28743 
1023 1 12354 12414 5.05141 
1024 1 12354 12415 7.31257 
1025 1 336 337 5.11113 
1026 1 336 396 5.05141 
1027 1 336 397 7.18613 
1028 1 12336 12337 5.28743 
1029 1 12336 12396 5.05141 
1030 1 12336 12397 7.31257 
1031 1 12337 12338 5.28743 
1032 1 12337 12397 5.05141 
1033 1 12337 12398 7.31257 
1034 1 337 338 5.11114 
1035 1 337 397 5.05141 
1036 1 337 398 7.18613 
1037 1 355 356 5.11113 
1038 1 355 415 5.05141 
1039 1 355 416 7.18613 
1040 1 356 357 5.11114 
1041 1 356 416 5.05141 
1042 1 356 417 7.18613 
1043 1 12355 12356 5.28743 
1044 1 12355 12415 5.05141 
1045 1 12355 12416 7.31257 
1046 1 12356 12357 5.28743 
1047 1 12356 12416 5.05141 
1048 1 12356 12417 7.31256 
1049 1 12335 12336 5.28743 
1050 1 12335 12395 5.05141 
1051 1 12335 12396 7.31256 
1052 1 335 336 5.11114 
1053 1 335 395 5.05141 
1054 1 335 396 7.18613 
1055 1 357 358 5.11113 
1056 1 357 417 5.05141 
1057 1 357 418 7.18612 
1058 1 12357 12358 5.28743 
1059 1 12357 12417 5.05141 
1060 1 12357 12418 7.31257 
1061 1 334 335 5.11113 
1062 1 334 394 5.05141 
1063 1 334 395 7.18612 
1064 1 12334 12335 5.28743 
1065 1 12334 12394 5.05141 
1066 1 12334 12395 7.31257 
1067 1 358 359 5.11112 
1068 1 358 418 5.05141 
1069 1 358 419 7.18612 
1070 1 12358 12359 5.28743 
1071 1 12358 12418 5.05141 
1072 1 12358 12419 7.31256 
1073 1 12333 12334 5.28743 
1074 1 12333 12393 5.05141 
1075 1 12333 12394 7.31256 
1076 1 333 334 5.11112 
1077 1 333 393 5.05141 
1078 1 333 394 7.18612 
1079 1 12359 12360 5.28743 
1080 1 12359 12419 5.05141 
1081 1 12359 12420 7.31257 
1082 1 359 360 5.11112 
1083 1 359 419 5.05141 
1084 1 359 420 7.18612 
1085 1 332 333 5.11112 
1086 1 332 392 5.05141 
1087 1 332 393 7.18612 
1088 1 12332 12333 5.28743 
1089 1 12332 12392 5.05141 
1090 1 12332 12393 7.31257 
1091 1 331 332 5.11114 
1092 1 331 391 5.05141 
1093 1 331 392 7.18613 
1094 1 12331 12332 5.28742 
1095 1 12331 12391 5.05141 
1096 1 12331 12392 7.31256 
1097 1 360 420 5.05141 
1098 1 360 361 7.18613 
1099 1 12360 12420 5.05141 
1100 1 12360 12361 7.31256 
1101 1 301 302 5.11114 
1102 1 301 360 5.11114 
1103 1 301 361 5.05141 
1104 1 301 362 7.18613 
1105 1 12301 12302 5.28742 
1106 1 12301 12360 5.28742 
1107 1 12301 12361 5.05141 
1108 1 12301 12362 7.31256 
1109 1 12404 12405 5.28743 
1110 1 12404 12464 5.05141 
1111 1 12404 12465 7.31257 
1112 1 405 406 5.11114 
1113 1 405 465 5.05141 
1114 1 405 466 7.18613 
1115 1 12405 12406 5.28742 
1116 1 12405 12465 5.05141 
1117 1 12405 12466 7.31256 
1118 1 406 407 5.11114 
1119 1 406 466 5.05141 
1120 1 406 467 7.18613 
1121 1 12406 12407 5.28742 
1122 1 12406 12466 5.05141 
1123 1 12406 12467 7.31256 
1124 1 407 408 5.11112 
1125 1 407 467 5.05141 
1126 1 407 468 7.18612 
1127 1 12407 12408 5.28743 
1128 1 12407 12467 5.05141 
1129 1 12407 12468 7.31257 
1130 1 12408 12409 5.28743 
1131 1 12408 12468 5.05141 
1132 1 12408 12469 7.31256 
1133 1 12401 12402 5.28743 
1134 1 12401 12461 5.05141 
1135 1 12401 12462 7.31256 
1136 1 12402 12403 5.28743 
1137 1 12402 12462 5.05141 
1138 1 12402 12463 7.31257 
1139 1 402 403 5.11113 
1140 1 402 462 5.05141 
1141 1 402 463 7.18612 
1142 1 12403 12404 5.28743 
1143 1 12403 12463 5.05141 
1144 1 12403 12464 7.31256 
1145 1 403 404 5.11112 
1146 1 403 463 5.05141 
1147 1 403 464 7.18612 
1148 1 404 405 5.11112 
1149 1 404 464 5.05141 
1150 1 404 465 7.18612 
1151 1 408 409 5.11112 
1152 1 408 468 5.05141 
1153 1 408 469 7.18612 
1154 1 409 410 5.11113 
1155 1 409 469 5.05141 
1156 1 409 470 7.18612 
1157 1 410 411 5.11114 
1158 1 410 470 5.05141 
1159 1 410 471 7.18613 
1160 1 12409 12410 5.28743 
1161 1 12409 12469 5.05141 
1162 1 12409 12470 7.31257 
1163 1 12410 12411 5.28743 
1164 1 12410 12470 5.05141 
1165 1 12410 12471 7.31256 
1166 1 12411 12412 5.28743 
1167 1 12411 12471 5.05141 
1168 1 12411 12472 7.31257 
1169 1 12399 12400 5.28743 
1170 1 12399 12459 5.05141 
1171 1 12399 12460 7.31257 
1172 1 12400 12401 5.28743 
1173 1 12400 12460 5.05141 
1174 1 12400 12461 7.31257 
1175 1 400 401 5.11113 
1176 1 400 460 5.05141 
1177 1 400 461 7.18613 
1178 1 401 402 5.11114 
1179 1 401 461 5.05141 
1180 1 401 462 7.18613 
1181 1 411 412 5.11113 
1182 1 411 471 5.05141 
1183 1 411 472 7.18613 
1184 1 12412 12413 5.28743 
1185 1 12412 12472 5.05141 
1186 1 12412 12473 7.31257 
1187 1 412 413 5.11114 
1188 1 412 472 5.05141 
1189 1 412 473 7.18613 
1190 1 12413 12414 5.28741 
1191 1 12413 12473 5.05141 
1192 1 12413 12474 7.31255 
1193 1 398 399 5.11113 
1194 1 398 458 5.05141 
1195 1 398 459 7.18612 
1196 1 12398 12399 5.28741 