ITEM: TIMESTEP
0
ITEM: NUMBER OF ENTRIES
71760
ITEM: BOX BOUNDS pp pp pp
-800 800
-800 800
-800 800
ITEM: ENTRIES index c_bnd[1] c_bnd[2] c_bnd[3] c_bt 
1 1 41 42 3.03549 
2 1 41 101 3 
3 1 41 102 4.26781 
4 1 101 102 3.03549 
5 1 101 161 3 
6 1 101 162 4.26781 
7 1 12040 12041 3.14016 
8 1 12040 12100 3 
9 1 12040 12101 4.34288 
10 1 12041 12042 3.14016 
11 1 12041 12101 3 
12 1 12041 12102 4.34288 
13 1 12042 12043 3.14016 
14 1 12042 12102 3 
15 1 12042 12103 4.34288 
16 1 12100 12101 3.14016 
17 1 12100 12160 3 
18 1 12100 12161 4.34288 
19 1 12101 12102 3.14016 
20 1 12101 12161 3 
21 1 12101 12162 4.34288 
22 1 12102 12103 3.14016 
23 1 12102 12162 3 
24 1 12102 12163 4.34288 
25 1 42 43 3.03549 
26 1 42 102 3 
27 1 42 103 4.26781 
28 1 43 44 3.03548 
29 1 43 103 3 
30 1 43 104 4.2678 
31 1 102 103 3.03549 
32 1 102 162 3 
33 1 102 163 4.26781 
34 1 103 104 3.03548 
35 1 103 163 3 
36 1 103 164 4.2678 
37 1 12043 12044 3.14016 
38 1 12043 12103 3 
39 1 12043 12104 4.34288 
40 1 12044 12045 3.14016 
41 1 12044 12104 3 
42 1 12044 12105 4.34288 
43 1 12103 12104 3.14016 
44 1 12103 12163 3 
45 1 12103 12164 4.34288 
46 1 12104 12105 3.14016 
47 1 12104 12164 3 
48 1 12104 12165 4.34288 
49 1 44 45 3.03548 
50 1 44 104 3 
51 1 44 105 4.2678 
52 1 45 46 3.03549 
53 1 45 105 3 
54 1 45 106 4.26781 
55 1 104 105 3.03548 
56 1 104 164 3 
57 1 104 165 4.2678 
58 1 105 106 3.03549 
59 1 105 165 3 
60 1 105 166 4.26781 
61 1 12045 12046 3.14015 
62 1 12045 12105 3 
63 1 12045 12106 4.34287 
64 1 12105 12106 3.14015 
65 1 12105 12165 3 
66 1 12105 12166 4.34287 
67 1 46 47 3.03549 
68 1 46 106 3 
69 1 46 107 4.26781 
70 1 47 48 3.03548 
71 1 47 107 3 
72 1 47 108 4.2678 
73 1 48 49 3.03548 
74 1 48 108 3 
75 1 48 109 4.2678 
76 1 106 107 3.03549 
77 1 106 166 3 
78 1 106 167 4.26781 
79 1 107 108 3.03548 
80 1 107 167 3 
81 1 107 168 4.2678 
82 1 108 109 3.03548 
83 1 108 168 3 
84 1 108 169 4.2678 
85 1 12046 12047 3.14015 
86 1 12046 12106 3 
87 1 12046 12107 4.34287 
88 1 12047 12048 3.14016 
89 1 12047 12107 3 
90 1 12047 12108 4.34288 
91 1 12106 12107 3.14015 
92 1 12106 12166 3 
93 1 12106 12167 4.34287 
94 1 12107 12108 3.14016 
95 1 12107 12167 3 
96 1 12107 12168 4.34288 
97 1 49 50 3.03549 
98 1 49 109 3 
99 1 49 110 4.26781 
100 1 50 51 3.03549 
101 1 50 110 3 
102 1 50 111 4.26781 
103 1 109 110 3.03549 
104 1 109 169 3 
105 1 109 170 4.26781 
106 1 110 111 3.03549 
107 1 110 170 3 
108 1 110 171 4.26781 
109 1 12048 12049 3.14016 
110 1 12048 12108 3 
111 1 12048 12109 4.34288 
112 1 12049 12050 3.14016 
113 1 12049 12109 3 
114 1 12049 12110 4.34288 
115 1 12108 12109 3.14016 
116 1 12108 12168 3 
117 1 12108 12169 4.34288 
118 1 12109 12110 3.14016 
119 1 12109 12169 3 
120 1 12109 12170 4.34288 
121 1 51 52 3.03549 
122 1 51 111 3 
123 1 51 112 4.26781 
124 1 111 112 3.03549 
125 1 111 171 3 
126 1 111 172 4.26781 
127 1 12050 12051 3.14016 
128 1 12050 12110 3 
129 1 12050 12111 4.34288 
130 1 12051 12052 3.14016 
131 1 12051 12111 3 
132 1 12051 12112 4.34288 
133 1 12052 12053 3.14016 
134 1 12052 12112 3 
135 1 12052 12113 4.34288 
136 1 12110 12111 3.14016 
137 1 12110 12170 3 
138 1 12110 12171 4.34288 
139 1 12111 12112 3.14016 
140 1 12111 12171 3 
141 1 12111 12172 4.34288 
142 1 12112 12113 3.14016 
143 1 12112 12172 3 
144 1 12112 12173 4.34288 
145 1 38 39 3.03548 
146 1 38 98 3 
147 1 38 99 4.2678 
148 1 39 40 3.03549 
149 1 39 99 3 
150 1 39 100 4.26781 
151 1 98 99 3.03548 
152 1 98 158 3 
153 1 98 159 4.2678 
154 1 99 100 3.03549 
155 1 99 159 3 
156 1 99 160 4.26781 
157 1 12038 12039 3.14015 
158 1 12038 12098 3 
159 1 12038 12099 4.34287 
160 1 12039 12040 3.14016 
161 1 12039 12099 3 
162 1 12039 12100 4.34288 
163 1 12098 12099 3.14015 
164 1 12098 12158 3 
165 1 12098 12159 4.34287 
166 1 12099 12100 3.14016 
167 1 12099 12159 3 
168 1 12099 12160 4.34288 
169 1 40 41 3.03549 
170 1 40 100 3 
171 1 40 101 4.26781 
172 1 100 101 3.03549 
173 1 100 160 3 
174 1 100 161 4.26781 
175 1 52 53 3.03549 
176 1 52 112 3 
177 1 52 113 4.26781 
178 1 112 113 3.03549 
179 1 112 172 3 
180 1 112 173 4.26781 
181 1 53 54 3.03548 
182 1 53 113 3 
183 1 53 114 4.2678 
184 1 54 55 3.03549 
185 1 54 114 3 
186 1 54 115 4.26781 
187 1 113 114 3.03548 
188 1 113 173 3 
189 1 113 174 4.2678 
190 1 114 115 3.03549 
191 1 114 174 3 
192 1 114 175 4.26781 
193 1 12053 12054 3.14015 
194 1 12053 12113 3 
195 1 12053 12114 4.34287 
196 1 12054 12055 3.14016 
197 1 12054 12114 3 
198 1 12054 12115 4.34288 
199 1 12113 12114 3.14015 
200 1 12113 12173 3 
201 1 12113 12174 4.34287 
202 1 12114 12115 3.14016 
203 1 12114 12174 3 
204 1 12114 12175 4.34288 
205 1 36 37 3.03549 
206 1 36 96 3 
207 1 36 97 4.26781 
208 1 96 97 3.03549 
209 1 96 156 3 
210 1 96 157 4.26781 
211 1 12035 12036 3.14016 
212 1 12035 12095 3 
213 1 12035 12096 4.34288 
214 1 12036 12037 3.14016 
215 1 12036 12096 3 
216 1 12036 12097 4.34288 
217 1 12037 12038 3.14016 
218 1 12037 12097 3 
219 1 12037 12098 4.34288 
220 1 12095 12096 3.14016 
221 1 12095 12155 3 
222 1 12095 12156 4.34288 
223 1 12096 12097 3.14016 
224 1 12096 12156 3 
225 1 12096 12157 4.34288 
226 1 12097 12098 3.14016 
227 1 12097 12157 3 
228 1 12097 12158 4.34288 
229 1 37 38 3.03549 
230 1 37 97 3 
231 1 37 98 4.26781 
232 1 97 98 3.03549 
233 1 97 157 3 
234 1 97 158 4.26781 
235 1 55 56 3.03549 
236 1 55 115 3 
237 1 55 116 4.26781 
238 1 115 116 3.03549 
239 1 115 175 3 
240 1 115 176 4.26781 
241 1 56 57 3.03549 
242 1 56 116 3 
243 1 56 117 4.26781 
244 1 116 117 3.03549 
245 1 116 176 3 
246 1 116 177 4.26781 
247 1 12055 12056 3.14016 
248 1 12055 12115 3 
249 1 12055 12116 4.34288 
250 1 12056 12057 3.14016 
251 1 12056 12116 3 
252 1 12056 12117 4.34288 
253 1 12057 12058 3.14016 
254 1 12057 12117 3 
255 1 12057 12118 4.34288 
256 1 12115 12116 3.14016 
257 1 12115 12175 3 
258 1 12115 12176 4.34288 
259 1 12116 12117 3.14016 
260 1 12116 12176 3 
261 1 12116 12177 4.34288 
262 1 12117 12118 3.14016 
263 1 12117 12177 3 
264 1 12117 12178 4.34288 
265 1 34 35 3.03549 
266 1 34 94 3 
267 1 34 95 4.26781 
268 1 35 36 3.03549 
269 1 35 95 3 
270 1 35 96 4.26781 
271 1 94 95 3.03549 
272 1 94 154 3 
273 1 94 155 4.26781 
274 1 95 96 3.03549 
275 1 95 155 3 
276 1 95 156 4.26781 
277 1 12033 12034 3.14016 
278 1 12033 12093 3 
279 1 12033 12094 4.34288 
280 1 12034 12035 3.14016 
281 1 12034 12094 3 
282 1 12034 12095 4.34288 
283 1 12093 12094 3.14016 
284 1 12093 12153 3 
285 1 12093 12154 4.34288 
286 1 12094 12095 3.14016 
287 1 12094 12154 3 
288 1 12094 12155 4.34288 
289 1 57 58 3.03549 
290 1 57 117 3 
291 1 57 118 4.26781 
292 1 58 59 3.03548 
293 1 58 118 3 
294 1 58 119 4.2678 
295 1 117 118 3.03549 
296 1 117 177 3 
297 1 117 178 4.26781 
298 1 118 119 3.03548 
299 1 118 178 3 
300 1 118 179 4.2678 
301 1 12058 12059 3.14016 
302 1 12058 12118 3 
303 1 12058 12119 4.34288 
304 1 12059 12060 3.14016 
305 1 12059 12119 3 
306 1 12059 12120 4.34288 
307 1 12118 12119 3.14016 
308 1 12118 12178 3 
309 1 12118 12179 4.34288 
310 1 12119 12120 3.14016 
311 1 12119 12179 3 
312 1 12119 12180 4.34288 
313 1 32 33 3.03548 
314 1 32 92 3 
315 1 32 93 4.2678 
316 1 33 34 3.03548 
317 1 33 93 3 
318 1 33 94 4.2678 
319 1 92 93 3.03548 
320 1 92 152 3 
321 1 92 153 4.2678 
322 1 93 94 3.03548 
323 1 93 153 3 
324 1 93 154 4.2678 
325 1 12032 12033 3.14016 
326 1 12032 12092 3 
327 1 12032 12093 4.34288 
328 1 12092 12093 3.14016 
329 1 12092 12152 3 
330 1 12092 12153 4.34288 
331 1 59 60 3.03548 
332 1 59 119 3 
333 1 59 120 4.2678 
334 1 60 120 3 
335 1 60 61 4.26781 
336 1 119 120 3.03548 
337 1 119 179 3 
338 1 119 180 4.2678 
339 1 120 180 3 
340 1 120 121 4.26781 
341 1 12060 12120 3 
342 1 12060 12061 4.34287 
343 1 12120 12180 3 
344 1 12120 12121 4.34287 
345 1 161 162 3.03549 
346 1 161 221 3 
347 1 161 222 4.26781 
348 1 221 222 3.03549 
349 1 221 281 3 
350 1 221 282 4.26781 
351 1 12160 12161 3.14016 
352 1 12160 12220 3 
353 1 12160 12221 4.34288 
354 1 12161 12162 3.14016 
355 1 12161 12221 3 
356 1 12161 12222 4.34288 
357 1 12162 12163 3.14016 
358 1 12162 12222 3 
359 1 12162 12223 4.34288 
360 1 12220 12221 3.14016 
361 1 12220 12280 3 
362 1 12220 12281 4.34288 
363 1 12221 12222 3.14016 
364 1 12221 12281 3 
365 1 12221 12282 4.34288 
366 1 12222 12223 3.14016 
367 1 12222 12282 3 
368 1 12222 12283 4.34288 
369 1 162 163 3.03549 
370 1 162 222 3 
371 1 162 223 4.26781 
372 1 163 164 3.03548 
373 1 163 223 3 
374 1 163 224 4.2678 
375 1 222 223 3.03549 
376 1 222 282 3 
377 1 222 283 4.26781 
378 1 223 224 3.03548 
379 1 223 283 3 
380 1 223 284 4.2678 
381 1 12163 12164 3.14016 
382 1 12163 12223 3 
383 1 12163 12224 4.34288 
384 1 12164 12165 3.14016 
385 1 12164 12224 3 
386 1 12164 12225 4.34288 
387 1 12223 12224 3.14016 
388 1 12223 12283 3 
389 1 12223 12284 4.34288 
390 1 12224 12225 3.14016 
391 1 12224 12284 3 
392 1 12224 12285 4.34288 
393 1 164 165 3.03548 
394 1 164 224 3 
395 1 164 225 4.2678 
396 1 165 166 3.03549 
397 1 165 225 3 
398 1 165 226 4.26781 
399 1 224 225 3.03548 
400 1 224 284 3 
401 1 224 285 4.2678 
402 1 225 226 3.03549 
403 1 225 285 3 
404 1 225 286 4.26781 
405 1 12165 12166 3.14015 
406 1 12165 12225 3 
407 1 12165 12226 4.34287 
408 1 12225 12226 3.14015 
409 1 12225 12285 3 
410 1 12225 12286 4.34287 
411 1 166 167 3.03549 
412 1 166 226 3 
413 1 166 227 4.26781 
414 1 167 168 3.03548 
415 1 167 227 3 
416 1 167 228 4.2678 
417 1 168 169 3.03548 
418 1 168 228 3 
419 1 168 229 4.2678 
420 1 226 227 3.03549 
421 1 226 286 3 
422 1 226 287 4.26781 
423 1 227 228 3.03548 
424 1 227 287 3 
425 1 227 288 4.2678 
426 1 228 229 3.03548 
427 1 228 288 3 
428 1 228 289 4.2678 
429 1 12166 12167 3.14015 
430 1 12166 12226 3 
431 1 12166 12227 4.34287 
432 1 12167 12168 3.14016 
433 1 12167 12227 3 
434 1 12167 12228 4.34288 
435 1 12226 12227 3.14015 
436 1 12226 12286 3 
437 1 12226 12287 4.34287 
438 1 12227 12228 3.14016 
439 1 12227 12287 3 
440 1 12227 12288 4.34288 
441 1 169 170 3.03549 
442 1 169 229 3 
443 1 169 230 4.26781 
444 1 170 171 3.03549 
445 1 170 230 3 
446 1 170 231 4.26781 
447 1 229 230 3.03549 
448 1 229 289 3 
449 1 229 290 4.26781 
450 1 230 231 3.03549 
451 1 230 290 3 
452 1 230 291 4.26781 
453 1 12168 12169 3.14016 
454 1 12168 12228 3 
455 1 12168 12229 4.34288 
456 1 12169 12170 3.14016 
457 1 12169 12229 3 
458 1 12169 12230 4.34288 
459 1 12228 12229 3.14016 
460 1 12228 12288 3 
461 1 12228 12289 4.34288 
462 1 12229 12230 3.14016 
463 1 12229 12289 3 
464 1 12229 12290 4.34288 
465 1 171 172 3.03549 
466 1 171 231 3 
467 1 171 232 4.26781 
468 1 231 232 3.03549 
469 1 231 291 3 
470 1 231 292 4.26781 
471 1 12170 12171 3.14016 
472 1 12170 12230 3 
473 1 12170 12231 4.34288 
474 1 12171 12172 3.14016 
475 1 12171 12231 3 
476 1 12171 12232 4.34288 
477 1 12172 12173 3.14016 
478 1 12172 12232 3 
479 1 12172 12233 4.34288 
480 1 12230 12231 3.14016 
481 1 12230 12290 3 
482 1 12230 12291 4.34288 
483 1 12231 12232 3.14016 
484 1 12231 12291 3 
485 1 12231 12292 4.34288 
486 1 12232 12233 3.14016 
487 1 12232 12292 3 
488 1 12232 12293 4.34288 
489 1 158 159 3.03548 
490 1 158 218 3 
491 1 158 219 4.2678 
492 1 159 160 3.03549 
493 1 159 219 3 
494 1 159 220 4.26781 
495 1 218 219 3.03548 
496 1 218 278 3 
497 1 218 279 4.2678 
498 1 219 220 3.03549 
499 1 219 279 3 
500 1 219 280 4.26781 
501 1 12158 12159 3.14015 
502 1 12158 12218 3 
503 1 12158 12219 4.34287 
504 1 12159 12160 3.14016 
505 1 12159 12219 3 
506 1 12159 12220 4.34288 
507 1 12218 12219 3.14015 
508 1 12218 12278 3 
509 1 12218 12279 4.34287 
510 1 12219 12220 3.14016 
511 1 12219 12279 3 
512 1 12219 12280 4.34288 
513 1 160 161 3.03549 
514 1 160 220 3 
515 1 160 221 4.26781 
516 1 220 221 3.03549 
517 1 220 280 3 
518 1 220 281 4.26781 
519 1 172 173 3.03549 
520 1 172 232 3 
521 1 172 233 4.26781 
522 1 232 233 3.03549 
523 1 232 292 3 
524 1 232 293 4.26781 
525 1 173 174 3.03548 
526 1 173 233 3 
527 1 173 234 4.2678 
528 1 174 175 3.03549 
529 1 174 234 3 
530 1 174 235 4.26781 
531 1 233 234 3.03548 
532 1 233 293 3 
533 1 233 294 4.2678 
534 1 234 235 3.03549 
535 1 234 294 3 
536 1 234 295 4.26781 
537 1 12173 12174 3.14015 
538 1 12173 12233 3 
539 1 12173 12234 4.34287 
540 1 12174 12175 3.14016 
541 1 12174 12234 3 
542 1 12174 12235 4.34288 
543 1 12233 12234 3.14015 
544 1 12233 12293 3 
545 1 12233 12294 4.34287 
546 1 12234 12235 3.14016 
547 1 12234 12294 3 
548 1 12234 12295 4.34288 
549 1 156 157 3.03549 
550 1 156 216 3 
551 1 156 217 4.26781 
552 1 216 217 3.03549 
553 1 216 276 3 
554 1 216 277 4.26781 
555 1 12155 12156 3.14016 
556 1 12155 12215 3 
557 1 12155 12216 4.34288 
558 1 12156 12157 3.14016 
559 1 12156 12216 3 
560 1 12156 12217 4.34288 
561 1 12157 12158 3.14016 
562 1 12157 12217 3 
563 1 12157 12218 4.34288 
564 1 12215 12216 3.14016 
565 1 12215 12275 3 
566 1 12215 12276 4.34288 
567 1 12216 12217 3.14016 
568 1 12216 12276 3 
569 1 12216 12277 4.34288 
570 1 12217 12218 3.14016 
571 1 12217 12277 3 
572 1 12217 12278 4.34288 
573 1 157 158 3.03549 
574 1 157 217 3 
575 1 157 218 4.26781 
576 1 217 218 3.03549 
577 1 217 277 3 
578 1 217 278 4.26781 
579 1 175 176 3.03549 
580 1 175 235 3 
581 1 175 236 4.26781 
582 1 235 236 3.03549 
583 1 235 295 3 
584 1 235 296 4.26781 
585 1 176 177 3.03549 
586 1 176 236 3 
587 1 176 237 4.26781 
588 1 236 237 3.03549 
589 1 236 296 3 
590 1 236 297 4.26781 
591 1 12175 12176 3.14016 
592 1 12175 12235 3 
593 1 12175 12236 4.34288 
594 1 12176 12177 3.14016 
595 1 12176 12236 3 
596 1 12176 12237 4.34288 
597 1 12177 12178 3.14016 
598 1 12177 12237 3 
599 1 12177 12238 4.34288 
600 1 12235 12236 3.14016 
601 1 12235 12295 3 
602 1 12235 12296 4.34288 
603 1 12236 12237 3.14016 
604 1 12236 12296 3 
605 1 12236 12297 4.34288 
606 1 12237 12238 3.14016 
607 1 12237 12297 3 
608 1 12237 12298 4.34288 
609 1 154 155 3.03549 
610 1 154 214 3 
611 1 154 215 4.26781 
612 1 155 156 3.03549 
613 1 155 215 3 
614 1 155 216 4.26781 
615 1 214 215 3.03549 
616 1 214 274 3 
617 1 214 275 4.26781 
618 1 215 216 3.03549 
619 1 215 275 3 
620 1 215 276 4.26781 
621 1 12153 12154 3.14016 
622 1 12153 12213 3 
623 1 12153 12214 4.34288 
624 1 12154 12155 3.14016 
625 1 12154 12214 3 
626 1 12154 12215 4.34288 
627 1 12213 12214 3.14016 
628 1 12213 12273 3 
629 1 12213 12274 4.34288 
630 1 12214 12215 3.14016 
631 1 12214 12274 3 
632 1 12214 12275 4.34288 
633 1 177 178 3.03549 
634 1 177 237 3 
635 1 177 238 4.26781 
636 1 178 179 3.03548 
637 1 178 238 3 
638 1 178 239 4.2678 
639 1 237 238 3.03549 
640 1 237 297 3 
641 1 237 298 4.26781 
642 1 238 239 3.03548 
643 1 238 298 3 
644 1 238 299 4.2678 
645 1 12178 12179 3.14016 
646 1 12178 12238 3 
647 1 12178 12239 4.34288 
648 1 12179 12180 3.14016 
649 1 12179 12239 3 
650 1 12179 12240 4.34288 
651 1 12238 12239 3.14016 
652 1 12238 12298 3 
653 1 12238 12299 4.34288 
654 1 12239 12240 3.14016 
655 1 12239 12299 3 
656 1 12239 12300 4.34288 
657 1 152 153 3.03548 
658 1 152 212 3 
659 1 152 213 4.2678 
660 1 153 154 3.03548 
661 1 153 213 3 
662 1 153 214 4.2678 
663 1 212 213 3.03548 
664 1 212 272 3 
665 1 212 273 4.2678 
666 1 213 214 3.03548 
667 1 213 273 3 
668 1 213 274 4.2678 
669 1 12152 12153 3.14016 
670 1 12152 12212 3 
671 1 12152 12213 4.34288 
672 1 12212 12213 3.14016 
673 1 12212 12272 3 
674 1 12212 12273 4.34288 
675 1 179 180 3.03548 
676 1 179 239 3 
677 1 179 240 4.2678 
678 1 180 240 3 
679 1 180 181 4.26781 
680 1 239 240 3.03548 
681 1 239 299 3 
682 1 239 300 4.2678 
683 1 240 300 3 
684 1 240 241 4.26781 
685 1 12180 12240 3 
686 1 12180 12181 4.34287 
687 1 12240 12300 3 
688 1 12240 12241 4.34287 
689 1 281 282 3.03549 
690 1 281 341 3 
691 1 281 342 4.26781 
692 1 341 342 3.03549 
693 1 341 401 3 
694 1 341 402 4.26781 
695 1 12280 12281 3.14016 
696 1 12280 12340 3 
697 1 12280 12341 4.34288 
698 1 12281 12282 3.14016 
699 1 12281 12341 3 
700 1 12281 12342 4.34288 
701 1 12282 12283 3.14016 
702 1 12282 12342 3 
703 1 12282 12343 4.34288 
704 1 12340 12341 3.14016 
705 1 12340 12400 3 
706 1 12340 12401 4.34288 
707 1 12341 12342 3.14016 
708 1 12341 12401 3 
709 1 12341 12402 4.34288 
710 1 12342 12343 3.14016 
711 1 12342 12402 3 
712 1 12342 12403 4.34288 
713 1 282 283 3.03549 
714 1 282 342 3 
715 1 282 343 4.26781 
716 1 283 284 3.03548 
717 1 283 343 3 
718 1 283 344 4.2678 
719 1 342 343 3.03549 
720 1 342 402 3 
721 1 342 403 4.26781 
722 1 343 344 3.03548 
723 1 343 403 3 
724 1 343 404 4.2678 
725 1 12283 12284 3.14016 
726 1 12283 12343 3 
727 1 12283 12344 4.34288 
728 1 12284 12285 3.14016 
729 1 12284 12344 3 
730 1 12284 12345 4.34288 
731 1 12343 12344 3.14016 
732 1 12343 12403 3 
733 1 12343 12404 4.34288 
734 1 12344 12345 3.14016 
735 1 12344 12404 3 
736 1 12344 12405 4.34288 
737 1 284 285 3.03548 
738 1 284 344 3 
739 1 284 345 4.2678 
740 1 285 286 3.03549 
741 1 285 345 3 
742 1 285 346 4.26781 
743 1 344 345 3.03548 
744 1 344 404 3 
745 1 344 405 4.2678 
746 1 345 346 3.03549 
747 1 345 405 3 
748 1 345 406 4.26781 
749 1 12285 12286 3.14015 
750 1 12285 12345 3 
751 1 12285 12346 4.34287 
752 1 12345 12346 3.14015 
753 1 12345 12405 3 
754 1 12345 12406 4.34287 
755 1 286 287 3.03549 
756 1 286 346 3 
757 1 286 347 4.26781 
758 1 287 288 3.03548 
759 1 287 347 3 
760 1 287 348 4.2678 
761 1 288 289 3.03548 
762 1 288 348 3 
763 1 288 349 4.2678 
764 1 346 347 3.03549 
765 1 346 406 3 
766 1 346 407 4.26781 
767 1 347 348 3.03548 
768 1 347 407 3 
769 1 347 408 4.2678 
770 1 348 349 3.03548 
771 1 348 408 3 
772 1 348 409 4.2678 
773 1 12286 12287 3.14015 
774 1 12286 12346 3 
775 1 12286 12347 4.34287 
776 1 12287 12288 3.14016 
777 1 12287 12347 3 
778 1 12287 12348 4.34288 
779 1 12346 12347 3.14015 
780 1 12346 12406 3 
781 1 12346 12407 4.34287 
782 1 12347 12348 3.14016 
783 1 12347 12407 3 
784 1 12347 12408 4.34288 
785 1 289 290 3.03549 
786 1 289 349 3 
787 1 289 350 4.26781 
788 1 290 291 3.03549 
789 1 290 350 3 
790 1 290 351 4.26781 
791 1 349 350 3.03549 
792 1 349 409 3 
793 1 349 410 4.26781 
794 1 350 351 3.03549 
795 1 350 410 3 
796 1 350 411 4.26781 
797 1 12288 12289 3.14016 
798 1 12288 12348 3 
799 1 12288 12349 4.34288 
800 1 12289 12290 3.14016 
801 1 12289 12349 3 
802 1 12289 12350 4.34288 
803 1 12348 12349 3.14016 
804 1 12348 12408 3 
805 1 12348 12409 4.34288 
806 1 12349 12350 3.14016 
807 1 12349 12409 3 
808 1 12349 12410 4.34288 
809 1 291 292 3.03549 
810 1 291 351 3 
811 1 291 352 4.26781 
812 1 351 352 3.03549 
813 1 351 411 3 
814 1 351 412 4.26781 
815 1 12290 12291 3.14016 
816 1 12290 12350 3 
817 1 12290 12351 4.34288 
818 1 12291 12292 3.14016 
819 1 12291 12351 3 
820 1 12291 12352 4.34288 
821 1 12292 12293 3.14016 
822 1 12292 12352 3 
823 1 12292 12353 4.34288 
824 1 12350 12351 3.14016 
825 1 12350 12410 3 
826 1 12350 12411 4.34288 
827 1 12351 12352 3.14016 
828 1 12351 12411 3 
829 1 12351 12412 4.34288 
830 1 12352 12353 3.14016 
831 1 12352 12412 3 
832 1 12352 12413 4.34288 
833 1 278 279 3.03548 
834 1 278 338 3 
835 1 278 339 4.2678 
836 1 279 280 3.03549 
837 1 279 339 3 
838 1 279 340 4.26781 
839 1 338 339 3.03548 
840 1 338 398 3 
841 1 338 399 4.2678 
842 1 339 340 3.03549 
843 1 339 399 3 
844 1 339 400 4.26781 
845 1 12278 12279 3.14015 
846 1 12278 12338 3 
847 1 12278 12339 4.34287 
848 1 12279 12280 3.14016 
849 1 12279 12339 3 
850 1 12279 12340 4.34288 
851 1 12338 12339 3.14015 
852 1 12338 12398 3 
853 1 12338 12399 4.34287 
854 1 12339 12340 3.14016 
855 1 12339 12399 3 
856 1 12339 12400 4.34288 
857 1 280 281 3.03549 
858 1 280 340 3 
859 1 280 341 4.26781 
860 1 340 341 3.03549 
861 1 340 400 3 
862 1 340 401 4.26781 
863 1 292 293 3.03549 
864 1 292 352 3 
865 1 292 353 4.26781 
866 1 352 353 3.03549 
867 1 352 412 3 
868 1 352 413 4.26781 
869 1 293 294 3.03548 
870 1 293 353 3 
871 1 293 354 4.2678 
872 1 294 295 3.03549 
873 1 294 354 3 
874 1 294 355 4.26781 
875 1 353 354 3.03548 
876 1 353 413 3 
877 1 353 414 4.2678 
878 1 354 355 3.03549 
879 1 354 414 3 
880 1 354 415 4.26781 
881 1 12293 12294 3.14015 
882 1 12293 12353 3 
883 1 12293 12354 4.34287 
884 1 12294 12295 3.14016 
885 1 12294 12354 3 
886 1 12294 12355 4.34288 
887 1 12353 12354 3.14015 
888 1 12353 12413 3 
889 1 12353 12414 4.34287 
890 1 12354 12355 3.14016 
891 1 12354 12414 3 
892 1 12354 12415 4.34288 
893 1 276 277 3.03549 
894 1 276 336 3 
895 1 276 337 4.26781 
896 1 336 337 3.03549 
897 1 336 396 3 
898 1 336 397 4.26781 
899 1 12275 12276 3.14016 
900 1 12275 12335 3 
901 1 12275 12336 4.34288 
902 1 12276 12277 3.14016 
903 1 12276 12336 3 
904 1 12276 12337 4.34288 
905 1 12277 12278 3.14016 
906 1 12277 12337 3 
907 1 12277 12338 4.34288 
908 1 12335 12336 3.14016 
909 1 12335 12395 3 
910 1 12335 12396 4.34288 
911 1 12336 12337 3.14016 
912 1 12336 12396 3 
913 1 12336 12397 4.34288 
914 1 12337 12338 3.14016 
915 1 12337 12397 3 
916 1 12337 12398 4.34288 
917 1 277 278 3.03549 
918 1 277 337 3 
919 1 277 338 4.26781 
920 1 337 338 3.03549 
921 1 337 397 3 
922 1 337 398 4.26781 
923 1 295 296 3.03549 
924 1 295 355 3 
925 1 295 356 4.26781 
926 1 355 356 3.03549 
927 1 355 415 3 
928 1 355 416 4.26781 
929 1 296 297 3.03549 
930 1 296 356 3 
931 1 296 357 4.26781 
932 1 356 357 3.03549 
933 1 356 416 3 
934 1 356 417 4.26781 
935 1 12295 12296 3.14016 
936 1 12295 12355 3 
937 1 12295 12356 4.34288 
938 1 12296 12297 3.14016 
939 1 12296 12356 3 
940 1 12296 12357 4.34288 
941 1 12297 12298 3.14016 
942 1 12297 12357 3 
943 1 12297 12358 4.34288 
944 1 12355 12356 3.14016 
945 1 12355 12415 3 
946 1 12355 12416 4.34288 
947 1 12356 12357 3.14016 
948 1 12356 12416 3 
949 1 12356 12417 4.34288 
950 1 12357 12358 3.14016 
951 1 12357 12417 3 
952 1 12357 12418 4.34288 
953 1 274 275 3.03549 
954 1 274 334 3 
955 1 274 335 4.26781 
956 1 275 276 3.03549 
957 1 275 335 3 
958 1 275 336 4.26781 
959 1 334 335 3.03549 
960 1 334 394 3 
961 1 334 395 4.26781 
962 1 335 336 3.03549 
963 1 335 395 3 
964 1 335 396 4.26781 
965 1 12273 12274 3.14016 
966 1 12273 12333 3 
967 1 12273 12334 4.34288 
968 1 12274 12275 3.14016 
969 1 12274 12334 3 
970 1 12274 12335 4.34288 
971 1 12333 12334 3.14016 
972 1 12333 12393 3 
973 1 12333 12394 4.34288 
974 1 12334 12335 3.14016 
975 1 12334 12394 3 
976 1 12334 12395 4.34288 
977 1 297 298 3.03549 
978 1 297 357 3 
979 1 297 358 4.26781 
980 1 298 299 3.03548 
981 1 298 358 3 
982 1 298 359 4.2678 
983 1 357 358 3.03549 
984 1 357 417 3 
985 1 357 418 4.26781 
986 1 358 359 3.03548 
987 1 358 418 3 
988 1 358 419 4.2678 
989 1 12298 12299 3.14016 
990 1 12298 12358 3 
991 1 12298 12359 4.34288 
992 1 12299 12300 3.14016 
993 1 12299 12359 3 
994 1 12299 12360 4.34288 
995 1 12358 12359 3.14016 
996 1 12358 12418 3 
997 1 12358 12419 4.34288 
998 1 12359 12360 3.14016 
999 1 12359 12419 3 
1000 1 12359 12420 4.34288 
1001 1 272 273 3.03548 
1002 1 272 332 3 
1003 1 272 333 4.2678 
1004 1 273 274 3.03548 
1005 1 273 333 3 
1006 1 273 334 4.2678 
1007 1 332 333 3.03548 
1008 1 332 392 3 
1009 1 332 393 4.2678 
1010 1 333 334 3.03548 
1011 1 333 393 3 
1012 1 333 394 4.2678 
1013 1 12272 12273 3.14016 
1014 1 12272 12332 3 
1015 1 12272 12333 4.34288 
1016 1 12332 12333 3.14016 
1017 1 12332 12392 3 
1018 1 12332 12393 4.34288 
1019 1 299 300 3.03548 
1020 1 299 359 3 
1021 1 299 360 4.2678 
1022 1 300 360 3 
1023 1 300 301 4.26781 
1024 1 359 360 3.03548 
1025 1 359 419 3 
1026 1 359 420 4.2678 
1027 1 360 420 3 
1028 1 360 361 4.26781 
1029 1 12300 12360 3 
1030 1 12300 12301 4.34287 
1031 1 12360 12420 3 
1032 1 12360 12361 4.34287 
1033 1 401 402 3.03549 
1034 1 401 461 3 
1035 1 401 462 4.26781 
1036 1 461 462 3.03549 
1037 1 461 521 3 
1038 1 461 522 4.26781 
1039 1 12400 12401 3.14016 
1040 1 12400 12460 3 
1041 1 12400 12461 4.34288 
1042 1 12401 12402 3.14016 
1043 1 12401 12461 3 
1044 1 12401 12462 4.34288 
1045 1 12402 12403 3.14016 
1046 1 12402 12462 3 
1047 1 12402 12463 4.34288 
1048 1 12460 12461 3.14016 
1049 1 12460 12520 3 
1050 1 12460 12521 4.34288 
1051 1 12461 12462 3.14016 
1052 1 12461 12521 3 
1053 1 12461 12522 4.34288 
1054 1 12462 12463 3.14016 
1055 1 12462 12522 3 
1056 1 12462 12523 4.34288 
1057 1 402 403 3.03549 
1058 1 402 462 3 
1059 1 402 463 4.26781 
1060 1 403 404 3.03548 
1061 1 403 463 3 
1062 1 403 464 4.2678 
1063 1 462 463 3.03549 
1064 1 462 522 3 
1065 1 462 523 4.26781 
1066 1 463 464 3.03548 
1067 1 463 523 3 
1068 1 463 524 4.2678 
1069 1 12403 12404 3.14016 
1070 1 12403 12463 3 
1071 1 12403 12464 4.34288 
1072 1 12404 12405 3.14016 
1073 1 12404 12464 3 
1074 1 12404 12465 4.34288 
1075 1 12463 12464 3.14016 
1076 1 12463 12523 3 
1077 1 12463 12524 4.34288 
1078 1 12464 12465 3.14016 
1079 1 12464 12524 3 
1080 1 12464 12525 4.34288 
1081 1 404 405 3.03548 
1082 1 404 464 3 
1083 1 404 465 4.2678 
1084 1 405 406 3.03549 
1085 1 405 465 3 
1086 1 405 466 4.26781 
1087 1 464 465 3.03548 
1088 1 464 524 3 
1089 1 464 525 4.2678 
1090 1 465 466 3.03549 
1091 1 465 525 3 
1092 1 465 526 4.26781 
1093 1 12405 12406 3.14015 
1094 1 12405 12465 3 
1095 1 12405 12466 4.34287 
1096 1 12465 12466 3.14015 
1097 1 12465 12525 3 
1098 1 12465 12526 4.34287 
1099 1 406 407 3.03549 
1100 1 406 466 3 
1101 1 406 467 4.26781 
1102 1 407 408 3.03548 
1103 1 407 467 3 
1104 1 407 468 4.2678 
1105 1 408 409 3.03548 
1106 1 408 468 3 
1107 1 408 469 4.2678 
1108 1 466 467 3.03549 
1109 1 466 526 3 
1110 1 466 527 4.26781 
1111 1 467 468 3.03548 
1112 1 467 527 3 
1113 1 467 528 4.2678 
1114 1 468 469 3.03548 
1115 1 468 528 3 
1116 1 468 529 4.2678 
1117 1 12406 12407 3.14015 
1118 1 12406 12466 3 
1119 1 12406 12467 4.34287 
1120 1 12407 12408 3.14016 
1121 1 12407 12467 3 
1122 1 12407 12468 4.34288 
1123 1 12466 12467 3.14015 
1124 1 12466 12526 3 
1125 1 12466 12527 4.34287 
1126 1 12467 12468 3.14016 
1127 1 12467 12527 3 
1128 1 12467 12528 4.34288 
1129 1 409 410 3.03549 
1130 1 409 469 3 
1131 1 409 470 4.26781 
1132 1 410 411 3.03549 
1133 1 410 470 3 
1134 1 410 471 4.26781 
1135 1 469 470 3.03549 
1136 1 469 529 3 
1137 1 469 530 4.26781 
1138 1 470 471 3.03549 
1139 1 470 530 3 
1140 1 470 531 4.26781 
1141 1 12408 12409 3.14016 
1142 1 12408 12468 3 
1143 1 12408 12469 4.34288 
1144 1 12409 12410 3.14016 
1145 1 12409 12469 3 
1146 1 12409 12470 4.34288 
1147 1 12468 12469 3.14016 
1148 1 12468 12528 3 
1149 1 12468 12529 4.34288 
1150 1 12469 12470 3.14016 
1151 1 12469 12529 3 
1152 1 12469 12530 4.34288 
1153 1 411 412 3.03549 
1154 1 411 471 3 
1155 1 411 472 4.26781 
1156 1 471 472 3.03549 
1157 1 471 531 3 
1158 1 471 532 4.26781 
1159 1 12410 12411 3.14016 
1160 1 12410 12470 3 
1161 1 12410 12471 4.34288 
1162 1 12411 12412 3.14016 
1163 1 12411 12471 3 
1164 1 12411 12472 4.34288 
1165 1 12412 12413 3.14016 
1166 1 12412 12472 3 
1167 1 12412 12473 4.34288 
1168 1 12470 12471 3.14016 
1169 1 12470 12530 3 
1170 1 12470 12531 4.34288 
1171 1 12471 12472 3.14016 
1172 1 12471 12531 3 
1173 1 12471 12532 4.34288 
1174 1 12472 12473 3.14016 
1175 1 12472 12532 3 
1176 1 12472 12533 4.34288 
1177 1 398 399 3.03548 
1178 1 398 458 3 
1179 1 398 459 4.2678 
1180 1 399 400 3.03549 
1181 1 399 459 3 
1182 1 399 460 4.26781 
1183 1 458 459 3.03548 
1184 1 458 518 3 
1185 1 458 519 4.2678 
1186 1 459 460 3.03549 
1187 1 459 519 3 
1188 1 459 520 4.26781 
1189 1 12398 12399 3.14015 
1190 1 12398 12458 3 
1191 1 12398 12459 4.34287 
1192 1 12399 12400 3.14016 
1193 1 12399 12459 3 
1194 1 12399 12460 4.34288 
1195 1 12458 12459 3.14015 
1196 1 12458 12518 3 
1197 1 12458 12519 4.34287 
1198 1 12459 12460 3.14016 
1199 1 12459 12519 3 
1200 1 12459 12520 4.34288 
1201 1 400 401 3.03549 
1202 1 400 460 3 
1203 1 400 461 4.26781 
1204 1 460 461 3.03549 
1205 1 460 520 3 
1206 1 460 521 4.26781 
1207 1 412 413 3.03549 
1208 1 412 472 3 
1209 1 412 473 4.26781 
1210 1 472 473 3.03549 
1211 1 472 532 3 
1212 1 472 533 4.26781 
1213 1 413 414 3.03548 
1214 1 413 473 3 
1215 1 413 474 4.2678 
1216 1 414 415 3.03549 
1217 1 414 474 3 
1218 1 414 475 4.26781 
1219 1 473 474 3.03548 
1220 1 473 533 3 
1221 1 473 534 4.2678 
1222 1 474 475 3.03549 
1223 1 474 534 3 
1224 1 474 535 4.26781 
1225 1 12413 12414 3.14015 
1226 1 12413 12473 3 
1227 1 12413 12474 4.34287 
1228 1 12414 12415 3.14016 
1229 1 12414 12474 3 
1230 1 12414 12475 4.34288 
1231 1 12473 12474 3.14015 
1232 1 12473 12533 3 
1233 1 12473 12534 4.34287 
1234 1 12474 12475 3.14016 
1235 1 12474 12534 3 
1236 1 12474 12535 4.34288 
1237 1 396 397 3.03549 
1238 1 396 456 3 
1239 1 396 457 4.26781 
1240 1 456 457 3.03549 
1241 1 456 516 3 
1242 1 456 517 4.26781 
1243 1 12395 12396 3.14016 
1244 1 12395 12455 3 
1245 1 12395 12456 4.34288 
1246 1 12396 12397 3.14016 
1247 1 12396 12456 3 
1248 1 12396 12457 4.34288 
1249 1 12397 12398 3.14016 
1250 1 12397 12457 3 
1251 1 12397 12458 4.34288 
1252 1 12455 12456 3.14016 
1253 1 12455 12515 3 
1254 1 12455 12516 4.34288 
1255 1 12456 12457 3.14016 
1256 1 12456 12516 3 
1257 1 12456 12517 4.34288 
1258 1 12457 12458 3.14016 
1259 1 12457 12517 3 
1260 1 12457 12518 4.34288 
1261 1 397 398 3.03549 
1262 1 397 457 3 
1263 1 397 458 4.26781 
1264 1 457 458 3.03549 
1265 1 457 517 3 
1266 1 457 518 4.26781 
1267 1 415 416 3.03549 
1268 1 415 475 3 
1269 1 415 476 4.26781 
1270 1 475 476 3.03549 
1271 1 475 535 3 
1272 1 475 536 4.26781 
1273 1 416 417 3.03549 
1274 1 416 476 3 
1275 1 416 477 4.26781 
1276 1 476 477 3.03549 
1277 1 476 536 3 
1278 1 476 537 4.26781 
1279 1 12415 12416 3.14016 
1280 1 12415 12475 3 
1281 1 12415 12476 4.34288 
1282 1 12416 12417 3.14016 
1283 1 12416 12476 3 
1284 1 12416 12477 4.34288 
1285 1 12417 12418 3.14016 
1286 1 12417 12477 3 
1287 1 12417 12478 4.34288 
1288 1 12475 12476 3.14016 
1289 1 12475 12535 3 
1290 1 12475 12536 4.34288 
1291 1 12476 12477 3.14016 
1292 1 12476 12536 3 
1293 1 12476 12537 4.34288 
1294 1 12477 12478 3.14016 
1295 1 12477 12537 3 
1296 1 12477 12538 4.34288 
1297 1 394 395 3.03549 
1298 1 394 454 3 
1299 1 394 455 4.26781 