ITEM: TIMESTEP
7000
ITEM: NUMBER OF ENTRIES
71760
ITEM: BOX BOUNDS pp pp pp
-1347.09 1347.09
-1347.09 1347.09
-1347.09 1347.09
ITEM: ENTRIES index c_bnd[1] c_bnd[2] c_bnd[3] c_bt 
1 1 12044 12045 5.28763 
2 1 12044 12104 5.05159 
3 1 12044 12105 7.31283 
4 1 45 46 5.11134 
5 1 45 105 5.05159 
6 1 45 106 7.1864 
7 1 12045 12046 5.28762 
8 1 12045 12105 5.05159 
9 1 12045 12106 7.31282 
10 1 46 47 5.11134 
11 1 46 106 5.05159 
12 1 46 107 7.1864 
13 1 12046 12047 5.28762 
14 1 12046 12106 5.05159 
15 1 12046 12107 7.31282 
16 1 47 48 5.11133 
17 1 47 107 5.05159 
18 1 47 108 7.18639 
19 1 12047 12048 5.28763 
20 1 12047 12107 5.05159 
21 1 12047 12108 7.31283 
22 1 12048 12049 5.28763 
23 1 12048 12108 5.05159 
24 1 12048 12109 7.31283 
25 1 12041 12042 5.28763 
26 1 12041 12101 5.05159 
27 1 12041 12102 7.31283 
28 1 12042 12043 5.28763 
29 1 12042 12102 5.05159 
30 1 12042 12103 7.31283 
31 1 42 43 5.11134 
32 1 42 102 5.05159 
33 1 42 103 7.18639 
34 1 12043 12044 5.28763 
35 1 12043 12103 5.05159 
36 1 12043 12104 7.31283 
37 1 43 44 5.11133 
38 1 43 103 5.05159 
39 1 43 104 7.18639 
40 1 44 45 5.11133 
41 1 44 104 5.05159 
42 1 44 105 7.18639 
43 1 48 49 5.11133 
44 1 48 108 5.05159 
45 1 48 109 7.18639 
46 1 49 50 5.11134 
47 1 49 109 5.05159 
48 1 49 110 7.18639 
49 1 50 51 5.11134 
50 1 50 110 5.05159 
51 1 50 111 7.18639 
52 1 12049 12050 5.28763 
53 1 12049 12109 5.05159 
54 1 12049 12110 7.31283 
55 1 12050 12051 5.28763 
56 1 12050 12110 5.05159 
57 1 12050 12111 7.31283 
58 1 12051 12052 5.28763 
59 1 12051 12111 5.05159 
60 1 12051 12112 7.31283 
61 1 12039 12040 5.28763 
62 1 12039 12099 5.05159 
63 1 12039 12100 7.31283 
64 1 12040 12041 5.28763 
65 1 12040 12100 5.05159 
66 1 12040 12101 7.31283 
67 1 40 41 5.11134 
68 1 40 100 5.05159 
69 1 40 101 7.18639 
70 1 41 42 5.11134 
71 1 41 101 5.05159 
72 1 41 102 7.18639 
73 1 51 52 5.11134 
74 1 51 111 5.05159 
75 1 51 112 7.18639 
76 1 12052 12053 5.28763 
77 1 12052 12112 5.05159 
78 1 12052 12113 7.31283 
79 1 52 53 5.11134 
80 1 52 112 5.05159 
81 1 52 113 7.18639 
82 1 12053 12054 5.28761 
83 1 12053 12113 5.05159 
84 1 12053 12114 7.31282 
85 1 38 39 5.11133 
86 1 38 98 5.05159 
87 1 38 99 7.18639 
88 1 12038 12039 5.28761 
89 1 12038 12098 5.05159 
90 1 12038 12099 7.31282 
91 1 39 40 5.11134 
92 1 39 99 5.05159 
93 1 39 100 7.18639 
94 1 53 54 5.11133 
95 1 53 113 5.05159 
96 1 53 114 7.18639 
97 1 54 55 5.11134 
98 1 54 114 5.05159 
99 1 54 115 7.18639 
100 1 12054 12055 5.28763 
101 1 12054 12114 5.05159 
102 1 12054 12115 7.31283 
103 1 36 37 5.11134 
104 1 36 96 5.05159 
105 1 36 97 7.18639 
106 1 12036 12037 5.28763 
107 1 12036 12096 5.05159 
108 1 12036 12097 7.31283 
109 1 12037 12038 5.28763 
110 1 12037 12097 5.05159 
111 1 12037 12098 7.31283 
112 1 37 38 5.11134 
113 1 37 97 5.05159 
114 1 37 98 7.18639 
115 1 55 56 5.11134 
116 1 55 115 5.05159 
117 1 55 116 7.18639 
118 1 56 57 5.11134 
119 1 56 116 5.05159 
120 1 56 117 7.18639 
121 1 12055 12056 5.28763 
122 1 12055 12115 5.05159 
123 1 12055 12116 7.31283 
124 1 12056 12057 5.28763 
125 1 12056 12116 5.05159 
126 1 12056 12117 7.31283 
127 1 12035 12036 5.28763 
128 1 12035 12095 5.05159 
129 1 12035 12096 7.31283 
130 1 35 36 5.11134 
131 1 35 95 5.05159 
132 1 35 96 7.18639 
133 1 57 58 5.11134 
134 1 57 117 5.05159 
135 1 57 118 7.18639 
136 1 12057 12058 5.28763 
137 1 12057 12117 5.05159 
138 1 12057 12118 7.31283 
139 1 34 35 5.11134 
140 1 34 94 5.05159 
141 1 34 95 7.18639 
142 1 12034 12035 5.28763 
143 1 12034 12094 5.05159 
144 1 12034 12095 7.31283 
145 1 58 59 5.11133 
146 1 58 118 5.05159 
147 1 58 119 7.18639 
148 1 12058 12059 5.28763 
149 1 12058 12118 5.05159 
150 1 12058 12119 7.31283 
151 1 12033 12034 5.28763 
152 1 12033 12093 5.05159 
153 1 12033 12094 7.31283 
154 1 33 34 5.11133 
155 1 33 93 5.05159 
156 1 33 94 7.18639 
157 1 12059 12060 5.28763 
158 1 12059 12119 5.05159 
159 1 12059 12120 7.31283 
160 1 59 60 5.11133 
161 1 59 119 5.05159 
162 1 59 120 7.18639 
163 1 32 33 5.11133 
164 1 32 92 5.05159 
165 1 32 93 7.18639 
166 1 12032 12033 5.28763 
167 1 12032 12092 5.05159 
168 1 12032 12093 7.31283 
169 1 31 32 5.11134 
170 1 31 91 5.05159 
171 1 31 92 7.1864 
172 1 12031 12032 5.28762 
173 1 12031 12091 5.05159 
174 1 12031 12092 7.31282 
175 1 60 120 5.05159 
176 1 60 61 7.1864 
177 1 12060 12120 5.05159 
178 1 12060 12061 7.31282 
179 1 12104 12105 5.28763 
180 1 12104 12164 5.0516 
181 1 12104 12165 7.31285 
182 1 12164 12165 5.28763 
183 1 12164 12224 5.0516 
184 1 12164 12225 7.31285 
185 1 105 106 5.11134 
186 1 105 165 5.0516 
187 1 105 166 7.18641 
188 1 12105 12106 5.28762 
189 1 12105 12165 5.0516 
190 1 12105 12166 7.31284 
191 1 165 166 5.11134 
192 1 165 225 5.0516 
193 1 165 226 7.18641 
194 1 12165 12166 5.28762 
195 1 12165 12225 5.0516 
196 1 12165 12226 7.31284 
197 1 106 107 5.11134 
198 1 106 166 5.0516 
199 1 106 167 7.18641 
200 1 12106 12107 5.28762 
201 1 12106 12166 5.0516 
202 1 12106 12167 7.31284 
203 1 166 167 5.11134 
204 1 166 226 5.0516 
205 1 166 227 7.18641 
206 1 12166 12167 5.28762 
207 1 12166 12226 5.0516 
208 1 12166 12227 7.31284 
209 1 107 108 5.11133 
210 1 107 167 5.0516 
211 1 107 168 7.1864 
212 1 12107 12108 5.28763 
213 1 12107 12167 5.0516 
214 1 12107 12168 7.31285 
215 1 167 168 5.11133 
216 1 167 227 5.0516 
217 1 167 228 7.1864 
218 1 12167 12168 5.28763 
219 1 12167 12227 5.0516 
220 1 12167 12228 7.31285 
221 1 12108 12109 5.28763 
222 1 12108 12168 5.0516 
223 1 12108 12169 7.31284 
224 1 12168 12169 5.28763 
225 1 12168 12228 5.0516 
226 1 12168 12229 7.31284 
227 1 12101 12102 5.28763 
228 1 12101 12161 5.0516 
229 1 12101 12162 7.31284 
230 1 12161 12162 5.28763 
231 1 12161 12221 5.0516 
232 1 12161 12222 7.31284 
233 1 12102 12103 5.28763 
234 1 12102 12162 5.0516 
235 1 12102 12163 7.31285 
236 1 102 103 5.11134 
237 1 102 162 5.0516 
238 1 102 163 7.18641 
239 1 12103 12104 5.28763 
240 1 12103 12163 5.0516 
241 1 12103 12164 7.31284 
242 1 12162 12163 5.28763 
243 1 12162 12222 5.0516 
244 1 12162 12223 7.31285 
245 1 162 163 5.11134 
246 1 162 222 5.0516 
247 1 162 223 7.18641 
248 1 12163 12164 5.28763 
249 1 12163 12223 5.0516 
250 1 12163 12224 7.31284 
251 1 103 104 5.11133 
252 1 103 163 5.0516 
253 1 103 164 7.1864 
254 1 104 105 5.11133 
255 1 104 164 5.0516 
256 1 104 165 7.1864 
257 1 163 164 5.11133 
258 1 163 223 5.0516 
259 1 163 224 7.1864 
260 1 164 165 5.11133 
261 1 164 224 5.0516 
262 1 164 225 7.1864 
263 1 108 109 5.11133 
264 1 108 168 5.0516 
265 1 108 169 7.1864 
266 1 109 110 5.11134 
267 1 109 169 5.0516 
268 1 109 170 7.18641 
269 1 168 169 5.11133 
270 1 168 228 5.0516 
271 1 168 229 7.1864 
272 1 169 170 5.11134 
273 1 169 229 5.0516 
274 1 169 230 7.18641 
275 1 110 111 5.11134 
276 1 110 170 5.0516 
277 1 110 171 7.18641 
278 1 12109 12110 5.28763 
279 1 12109 12169 5.0516 
280 1 12109 12170 7.31285 
281 1 12110 12111 5.28763 
282 1 12110 12170 5.0516 
283 1 12110 12171 7.31284 
284 1 170 171 5.11134 
285 1 170 230 5.0516 
286 1 170 231 7.18641 
287 1 12169 12170 5.28763 
288 1 12169 12229 5.0516 
289 1 12169 12230 7.31285 
290 1 12170 12171 5.28763 
291 1 12170 12230 5.0516 
292 1 12170 12231 7.31284 
293 1 12111 12112 5.28763 
294 1 12111 12171 5.0516 
295 1 12111 12172 7.31285 
296 1 12171 12172 5.28763 
297 1 12171 12231 5.0516 
298 1 12171 12232 7.31285 
299 1 12099 12100 5.28763 
300 1 12099 12159 5.0516 
301 1 12099 12160 7.31285 
302 1 12159 12160 5.28763 
303 1 12159 12219 5.0516 
304 1 12159 12220 7.31285 
305 1 12100 12101 5.28763 
306 1 12100 12160 5.0516 
307 1 12100 12161 7.31285 
308 1 100 101 5.11134 
309 1 100 160 5.0516 
310 1 100 161 7.18641 
311 1 12160 12161 5.28763 
312 1 12160 12220 5.0516 
313 1 12160 12221 7.31285 
314 1 160 161 5.11134 
315 1 160 220 5.0516 
316 1 160 221 7.18641 
317 1 101 102 5.11134 
318 1 101 161 5.0516 
319 1 101 162 7.18641 
320 1 161 162 5.11134 
321 1 161 221 5.0516 
322 1 161 222 7.18641 
323 1 111 112 5.11134 
324 1 111 171 5.0516 
325 1 111 172 7.18641 
326 1 171 172 5.11134 
327 1 171 231 5.0516 
328 1 171 232 7.18641 
329 1 12112 12113 5.28763 
330 1 12112 12172 5.0516 
331 1 12112 12173 7.31285 
332 1 112 113 5.11134 
333 1 112 172 5.0516 
334 1 112 173 7.18641 
335 1 12172 12173 5.28763 
336 1 12172 12232 5.0516 
337 1 12172 12233 7.31285 
338 1 172 173 5.11134 
339 1 172 232 5.0516 
340 1 172 233 7.18641 
341 1 12113 12114 5.28761 
342 1 12113 12173 5.0516 
343 1 12113 12174 7.31283 
344 1 12173 12174 5.28761 
345 1 12173 12233 5.0516 
346 1 12173 12234 7.31283 
347 1 98 99 5.11133 
348 1 98 158 5.0516 
349 1 98 159 7.1864 
350 1 12098 12099 5.28761 
351 1 12098 12158 5.0516 
352 1 12098 12159 7.31283 
353 1 158 159 5.11133 
354 1 158 218 5.0516 
355 1 158 219 7.1864 
356 1 12158 12159 5.28761 
357 1 12158 12218 5.0516 
358 1 12158 12219 7.31283 
359 1 99 100 5.11134 
360 1 99 159 5.0516 
361 1 99 160 7.18641 
362 1 159 160 5.11134 
363 1 159 219 5.0516 
364 1 159 220 7.18641 
365 1 113 114 5.11133 
366 1 113 173 5.0516 
367 1 113 174 7.1864 
368 1 173 174 5.11133 
369 1 173 233 5.0516 
370 1 173 234 7.1864 
371 1 114 115 5.11134 
372 1 114 174 5.0516 
373 1 114 175 7.18641 
374 1 12114 12115 5.28763 
375 1 12114 12174 5.0516 
376 1 12114 12175 7.31285 
377 1 174 175 5.11134 
378 1 174 234 5.0516 
379 1 174 235 7.18641 
380 1 12174 12175 5.28763 
381 1 12174 12234 5.0516 
382 1 12174 12235 7.31285 
383 1 96 97 5.11134 
384 1 96 156 5.0516 
385 1 96 157 7.18641 
386 1 12096 12097 5.28763 
387 1 12096 12156 5.0516 
388 1 12096 12157 7.31285 
389 1 12097 12098 5.28763 
390 1 12097 12157 5.0516 
391 1 12097 12158 7.31285 
392 1 97 98 5.11134 
393 1 97 157 5.0516 
394 1 97 158 7.18641 
395 1 156 157 5.11134 
396 1 156 216 5.0516 
397 1 156 217 7.18641 
398 1 12156 12157 5.28763 
399 1 12156 12216 5.0516 
400 1 12156 12217 7.31285 
401 1 12157 12158 5.28763 
402 1 12157 12217 5.0516 
403 1 12157 12218 7.31285 
404 1 157 158 5.11134 
405 1 157 217 5.0516 
406 1 157 218 7.18641 
407 1 115 116 5.11134 
408 1 115 175 5.0516 
409 1 115 176 7.18641 
410 1 116 117 5.11134 
411 1 116 176 5.0516 
412 1 116 177 7.18641 
413 1 12115 12116 5.28763 
414 1 12115 12175 5.0516 
415 1 12115 12176 7.31285 
416 1 12116 12117 5.28763 
417 1 12116 12176 5.0516 
418 1 12116 12177 7.31284 
419 1 175 176 5.11134 
420 1 175 235 5.0516 
421 1 175 236 7.18641 
422 1 176 177 5.11134 
423 1 176 236 5.0516 
424 1 176 237 7.18641 
425 1 12175 12176 5.28763 
426 1 12175 12235 5.0516 
427 1 12175 12236 7.31285 
428 1 12176 12177 5.28763 
429 1 12176 12236 5.0516 
430 1 12176 12237 7.31284 
431 1 12095 12096 5.28763 
432 1 12095 12155 5.0516 
433 1 12095 12156 7.31284 
434 1 12155 12156 5.28763 
435 1 12155 12215 5.0516 
436 1 12155 12216 7.31284 
437 1 95 96 5.11134 
438 1 95 155 5.0516 
439 1 95 156 7.18641 
440 1 155 156 5.11134 
441 1 155 215 5.0516 
442 1 155 216 7.18641 
443 1 117 118 5.11134 
444 1 117 177 5.0516 
445 1 117 178 7.18641 
446 1 177 178 5.11134 
447 1 177 237 5.0516 
448 1 177 238 7.18641 
449 1 12117 12118 5.28763 
450 1 12117 12177 5.0516 
451 1 12117 12178 7.31285 
452 1 12177 12178 5.28763 
453 1 12177 12237 5.0516 
454 1 12177 12238 7.31285 
455 1 94 95 5.11134 
456 1 94 154 5.0516 
457 1 94 155 7.18641 
458 1 12094 12095 5.28763 
459 1 12094 12154 5.0516 
460 1 12094 12155 7.31285 
461 1 154 155 5.11134 
462 1 154 214 5.0516 
463 1 154 215 7.18641 
464 1 12154 12155 5.28763 
465 1 12154 12214 5.0516 
466 1 12154 12215 7.31285 
467 1 118 119 5.11133 
468 1 118 178 5.0516 
469 1 118 179 7.1864 
470 1 12118 12119 5.28763 
471 1 12118 12178 5.0516 
472 1 12118 12179 7.31284 
473 1 178 179 5.11133 
474 1 178 238 5.0516 
475 1 178 239 7.1864 
476 1 12178 12179 5.28763 
477 1 12178 12238 5.0516 
478 1 12178 12239 7.31284 
479 1 12093 12094 5.28763 
480 1 12093 12153 5.0516 
481 1 12093 12154 7.31284 
482 1 93 94 5.11133 
483 1 93 153 5.0516 
484 1 93 154 7.1864 
485 1 12153 12154 5.28763 
486 1 12153 12213 5.0516 
487 1 12153 12214 7.31284 
488 1 153 154 5.11133 
489 1 153 213 5.0516 
490 1 153 214 7.1864 
491 1 12119 12120 5.28763 
492 1 12119 12179 5.0516 
493 1 12119 12180 7.31285 
494 1 119 120 5.11133 
495 1 119 179 5.0516 
496 1 119 180 7.1864 
497 1 12179 12180 5.28763 
498 1 12179 12239 5.0516 
499 1 12179 12240 7.31285 
500 1 179 180 5.11133 
501 1 179 239 5.0516 
502 1 179 240 7.1864 
503 1 92 93 5.11133 
504 1 92 152 5.0516 
505 1 92 153 7.1864 
506 1 12092 12093 5.28763 
507 1 12092 12152 5.0516 
508 1 12092 12153 7.31285 
509 1 152 153 5.11133 
510 1 152 212 5.0516 
511 1 152 213 7.1864 
512 1 12152 12153 5.28763 
513 1 12152 12212 5.0516 
514 1 12152 12213 7.31285 
515 1 91 92 5.11134 
516 1 91 151 5.0516 
517 1 91 152 7.18641 
518 1 151 152 5.11134 
519 1 151 211 5.0516 
520 1 151 212 7.18641 
521 1 12151 12152 5.28762 
522 1 12151 12211 5.0516 
523 1 12151 12212 7.31284 
524 1 12091 12092 5.28762 
525 1 12091 12151 5.0516 
526 1 12091 12152 7.31284 
527 1 120 180 5.0516 
528 1 120 121 7.18641 
529 1 12120 12180 5.0516 
530 1 12120 12121 7.31284 
531 1 180 240 5.0516 
532 1 180 181 7.18641 
533 1 12180 12240 5.0516 
534 1 12180 12181 7.31284 
535 1 12061 12062 5.28762 
536 1 12061 12120 5.28762 
537 1 12061 12121 5.0516 
538 1 12061 12122 7.31284 
539 1 121 122 5.11134 
540 1 121 180 5.11134 
541 1 121 181 5.0516 
542 1 121 182 7.18641 
543 1 12121 12122 5.28762 
544 1 12121 12180 5.28762 
545 1 12121 12181 5.0516 
546 1 12121 12182 7.31284 
547 1 61 62 5.11134 
548 1 61 120 5.11134 
549 1 61 121 5.0516 
550 1 61 122 7.18641 
551 1 12224 12225 5.28763 
552 1 12224 12284 5.0516 
553 1 12224 12285 7.31285 
554 1 225 226 5.11134 
555 1 225 285 5.0516 
556 1 225 286 7.18641 
557 1 12225 12226 5.28762 
558 1 12225 12285 5.0516 
559 1 12225 12286 7.31284 
560 1 226 227 5.11134 
561 1 226 286 5.0516 
562 1 226 287 7.18641 
563 1 12226 12227 5.28762 
564 1 12226 12286 5.0516 
565 1 12226 12287 7.31284 
566 1 227 228 5.11133 
567 1 227 287 5.0516 
568 1 227 288 7.1864 
569 1 12227 12228 5.28763 
570 1 12227 12287 5.0516 
571 1 12227 12288 7.31285 
572 1 12228 12229 5.28763 
573 1 12228 12288 5.0516 
574 1 12228 12289 7.31284 
575 1 12221 12222 5.28763 
576 1 12221 12281 5.0516 
577 1 12221 12282 7.31284 
578 1 12222 12223 5.28763 
579 1 12222 12282 5.0516 
580 1 12222 12283 7.31285 
581 1 222 223 5.11134 
582 1 222 282 5.0516 
583 1 222 283 7.18641 
584 1 12223 12224 5.28763 
585 1 12223 12283 5.0516 
586 1 12223 12284 7.31284 
587 1 223 224 5.11133 
588 1 223 283 5.0516 
589 1 223 284 7.1864 
590 1 224 225 5.11133 
591 1 224 284 5.0516 
592 1 224 285 7.1864 
593 1 228 229 5.11133 
594 1 228 288 5.0516 
595 1 228 289 7.1864 
596 1 229 230 5.11134 
597 1 229 289 5.0516 
598 1 229 290 7.18641 
599 1 230 231 5.11134 
600 1 230 290 5.0516 
601 1 230 291 7.18641 
602 1 12229 12230 5.28763 
603 1 12229 12289 5.0516 
604 1 12229 12290 7.31285 
605 1 12230 12231 5.28763 
606 1 12230 12290 5.0516 
607 1 12230 12291 7.31284 
608 1 12231 12232 5.28763 
609 1 12231 12291 5.0516 
610 1 12231 12292 7.31285 
611 1 12219 12220 5.28763 
612 1 12219 12279 5.0516 
613 1 12219 12280 7.31285 
614 1 12220 12221 5.28763 
615 1 12220 12280 5.0516 
616 1 12220 12281 7.31285 
617 1 220 221 5.11134 
618 1 220 280 5.0516 
619 1 220 281 7.18641 
620 1 221 222 5.11134 
621 1 221 281 5.0516 
622 1 221 282 7.18641 
623 1 231 232 5.11134 
624 1 231 291 5.0516 
625 1 231 292 7.18641 
626 1 12232 12233 5.28763 
627 1 12232 12292 5.0516 
628 1 12232 12293 7.31285 
629 1 232 233 5.11134 
630 1 232 292 5.0516 
631 1 232 293 7.18641 
632 1 12233 12234 5.28761 
633 1 12233 12293 5.0516 
634 1 12233 12294 7.31283 
635 1 218 219 5.11133 
636 1 218 278 5.0516 
637 1 218 279 7.1864 
638 1 12218 12219 5.28761 
639 1 12218 12278 5.0516 
640 1 12218 12279 7.31283 
641 1 219 220 5.11134 
642 1 219 279 5.0516 
643 1 219 280 7.18641 
644 1 233 234 5.11133 
645 1 233 293 5.0516 
646 1 233 294 7.1864 
647 1 234 235 5.11134 
648 1 234 294 5.0516 
649 1 234 295 7.18641 
650 1 12234 12235 5.28763 
651 1 12234 12294 5.0516 
652 1 12234 12295 7.31285 
653 1 216 217 5.11134 
654 1 216 276 5.0516 
655 1 216 277 7.18641 
656 1 12216 12217 5.28763 
657 1 12216 12276 5.0516 
658 1 12216 12277 7.31285 
659 1 12217 12218 5.28763 
660 1 12217 12277 5.0516 
661 1 12217 12278 7.31285 
662 1 217 218 5.11134 
663 1 217 277 5.0516 
664 1 217 278 7.18641 
665 1 235 236 5.11134 
666 1 235 295 5.0516 
667 1 235 296 7.18641 
668 1 236 237 5.11134 
669 1 236 296 5.0516 
670 1 236 297 7.18641 
671 1 12235 12236 5.28763 
672 1 12235 12295 5.0516 
673 1 12235 12296 7.31285 
674 1 12236 12237 5.28763 
675 1 12236 12296 5.0516 
676 1 12236 12297 7.31284 
677 1 12215 12216 5.28763 
678 1 12215 12275 5.0516 
679 1 12215 12276 7.31284 
680 1 215 216 5.11134 
681 1 215 275 5.0516 
682 1 215 276 7.18641 
683 1 237 238 5.11134 
684 1 237 297 5.0516 
685 1 237 298 7.18641 
686 1 12237 12238 5.28763 
687 1 12237 12297 5.0516 
688 1 12237 12298 7.31285 
689 1 214 215 5.11134 
690 1 214 274 5.0516 
691 1 214 275 7.18641 
692 1 12214 12215 5.28763 
693 1 12214 12274 5.0516 
694 1 12214 12275 7.31285 
695 1 238 239 5.11133 
696 1 238 298 5.0516 
697 1 238 299 7.1864 
698 1 12238 12239 5.28763 
699 1 12238 12298 5.0516 
700 1 12238 12299 7.31284 
701 1 12213 12214 5.28763 
702 1 12213 12273 5.0516 
703 1 12213 12274 7.31284 
704 1 213 214 5.11133 
705 1 213 273 5.0516 
706 1 213 274 7.1864 
707 1 12239 12240 5.28763 
708 1 12239 12299 5.0516 
709 1 12239 12300 7.31285 
710 1 239 240 5.11133 
711 1 239 299 5.0516 
712 1 239 300 7.1864 
713 1 212 213 5.11133 
714 1 212 272 5.0516 
715 1 212 273 7.1864 
716 1 12212 12213 5.28763 
717 1 12212 12272 5.0516 
718 1 12212 12273 7.31285 
719 1 211 212 5.11134 
720 1 211 271 5.0516 
721 1 211 272 7.18641 
722 1 12211 12212 5.28762 
723 1 12211 12271 5.0516 
724 1 12211 12272 7.31284 
725 1 240 300 5.0516 
726 1 240 241 7.18641 
727 1 12240 12300 5.0516 
728 1 12240 12241 7.31284 
729 1 181 182 5.11134 
730 1 181 240 5.11134 
731 1 181 241 5.0516 
732 1 181 242 7.18641 
733 1 12181 12182 5.28762 
734 1 12181 12240 5.28762 
735 1 12181 12241 5.0516 
736 1 12181 12242 7.31284 
737 1 12284 12285 5.28763 
738 1 12284 12344 5.0516 
739 1 12284 12345 7.31285 
740 1 285 286 5.11134 
741 1 285 345 5.0516 
742 1 285 346 7.18641 
743 1 12285 12286 5.28762 
744 1 12285 12345 5.0516 
745 1 12285 12346 7.31284 
746 1 286 287 5.11134 
747 1 286 346 5.0516 
748 1 286 347 7.18641 
749 1 12286 12287 5.28762 
750 1 12286 12346 5.0516 
751 1 12286 12347 7.31284 
752 1 287 288 5.11133 
753 1 287 347 5.0516 
754 1 287 348 7.1864 
755 1 12287 12288 5.28763 
756 1 12287 12347 5.0516 
757 1 12287 12348 7.31285 
758 1 12288 12289 5.28763 
759 1 12288 12348 5.0516 
760 1 12288 12349 7.31284 
761 1 12281 12282 5.28763 
762 1 12281 12341 5.0516 
763 1 12281 12342 7.31284 
764 1 12282 12283 5.28763 
765 1 12282 12342 5.0516 
766 1 12282 12343 7.31285 
767 1 282 283 5.11134 
768 1 282 342 5.0516 
769 1 282 343 7.18641 
770 1 12283 12284 5.28763 
771 1 12283 12343 5.0516 
772 1 12283 12344 7.31284 
773 1 283 284 5.11133 
774 1 283 343 5.0516 
775 1 283 344 7.1864 
776 1 284 285 5.11133 
777 1 284 344 5.0516 
778 1 284 345 7.1864 
779 1 288 289 5.11133 
780 1 288 348 5.0516 
781 1 288 349 7.1864 
782 1 289 290 5.11134 
783 1 289 349 5.0516 
784 1 289 350 7.18641 
785 1 290 291 5.11134 
786 1 290 350 5.0516 
787 1 290 351 7.18641 
788 1 12289 12290 5.28763 
789 1 12289 12349 5.0516 
790 1 12289 12350 7.31285 
791 1 12290 12291 5.28763 
792 1 12290 12350 5.0516 
793 1 12290 12351 7.31284 
794 1 12291 12292 5.28763 
795 1 12291 12351 5.0516 
796 1 12291 12352 7.31285 
797 1 12279 12280 5.28763 
798 1 12279 12339 5.0516 
799 1 12279 12340 7.31285 
800 1 12280 12281 5.28763 
801 1 12280 12340 5.0516 
802 1 12280 12341 7.31285 
803 1 280 281 5.11134 
804 1 280 340 5.0516 
805 1 280 341 7.18641 
806 1 281 282 5.11134 
807 1 281 341 5.0516 
808 1 281 342 7.18641 
809 1 291 292 5.11134 
810 1 291 351 5.0516 
811 1 291 352 7.18641 
812 1 12292 12293 5.28763 
813 1 12292 12352 5.0516 
814 1 12292 12353 7.31285 
815 1 292 293 5.11134 
816 1 292 352 5.0516 
817 1 292 353 7.18641 
818 1 12293 12294 5.28761 
819 1 12293 12353 5.0516 
820 1 12293 12354 7.31283 
821 1 278 279 5.11133 
822 1 278 338 5.0516 
823 1 278 339 7.1864 
824 1 12278 12279 5.28761 
825 1 12278 12338 5.0516 
826 1 12278 12339 7.31283 
827 1 279 280 5.11134 
828 1 279 339 5.0516 
829 1 279 340 7.18641 
830 1 293 294 5.11133 
831 1 293 353 5.0516 
832 1 293 354 7.1864 
833 1 294 295 5.11134 
834 1 294 354 5.0516 
835 1 294 355 7.18641 
836 1 12294 12295 5.28763 
837 1 12294 12354 5.0516 
838 1 12294 12355 7.31285 
839 1 276 277 5.11134 
840 1 276 336 5.0516 
841 1 276 337 7.18641 
842 1 12276 12277 5.28763 
843 1 12276 12336 5.0516 
844 1 12276 12337 7.31285 
845 1 12277 12278 5.28763 
846 1 12277 12337 5.0516 
847 1 12277 12338 7.31285 
848 1 277 278 5.11134 
849 1 277 337 5.0516 
850 1 277 338 7.18641 
851 1 295 296 5.11134 
852 1 295 355 5.0516 
853 1 295 356 7.18641 
854 1 296 297 5.11134 
855 1 296 356 5.0516 
856 1 296 357 7.18641 
857 1 12295 12296 5.28763 
858 1 12295 12355 5.0516 
859 1 12295 12356 7.31285 
860 1 12296 12297 5.28763 
861 1 12296 12356 5.0516 
862 1 12296 12357 7.31284 
863 1 12275 12276 5.28763 
864 1 12275 12335 5.0516 
865 1 12275 12336 7.31284 
866 1 275 276 5.11134 
867 1 275 335 5.0516 
868 1 275 336 7.18641 
869 1 297 298 5.11134 
870 1 297 357 5.0516 
871 1 297 358 7.18641 
872 1 12297 12298 5.28763 
873 1 12297 12357 5.0516 
874 1 12297 12358 7.31285 
875 1 274 275 5.11134 
876 1 274 334 5.0516 
877 1 274 335 7.18641 
878 1 12274 12275 5.28763 
879 1 12274 12334 5.0516 
880 1 12274 12335 7.31285 
881 1 298 299 5.11133 
882 1 298 358 5.0516 
883 1 298 359 7.1864 
884 1 12298 12299 5.28763 
885 1 12298 12358 5.0516 
886 1 12298 12359 7.31284 
887 1 12273 12274 5.28763 
888 1 12273 12333 5.0516 
889 1 12273 12334 7.31284 
890 1 273 274 5.11133 
891 1 273 333 5.0516 
892 1 273 334 7.1864 
893 1 12299 12300 5.28763 
894 1 12299 12359 5.0516 
895 1 12299 12360 7.31285 
896 1 299 300 5.11133 
897 1 299 359 5.0516 
898 1 299 360 7.1864 
899 1 272 273 5.11133 
900 1 272 332 5.0516 
901 1 272 333 7.1864 
902 1 12272 12273 5.28763 
903 1 12272 12332 5.0516 
904 1 12272 12333 7.31285 
905 1 271 272 5.11134 
906 1 271 331 5.0516 
907 1 271 332 7.18641 
908 1 12271 12272 5.28762 
909 1 12271 12331 5.0516 
910 1 12271 12332 7.31284 
911 1 300 360 5.0516 
912 1 300 301 7.18641 
913 1 12300 12360 5.0516 
914 1 12300 12301 7.31284 
915 1 241 242 5.11134 
916 1 241 300 5.11134 
917 1 241 301 5.0516 
918 1 241 302 7.18641 
919 1 12241 12242 5.28762 
920 1 12241 12300 5.28762 
921 1 12241 12301 5.0516 
922 1 12241 12302 7.31284 
923 1 12344 12345 5.28763 
924 1 12344 12404 5.0516 
925 1 12344 12405 7.31285 
926 1 345 346 5.11134 
927 1 345 405 5.0516 
928 1 345 406 7.18641 
929 1 12345 12346 5.28762 
930 1 12345 12405 5.0516 
931 1 12345 12406 7.31284 
932 1 346 347 5.11134 
933 1 346 406 5.0516 
934 1 346 407 7.18641 
935 1 12346 12347 5.28762 
936 1 12346 12406 5.0516 
937 1 12346 12407 7.31284 
938 1 347 348 5.11133 
939 1 347 407 5.0516 
940 1 347 408 7.1864 
941 1 12347 12348 5.28763 
942 1 12347 12407 5.0516 
943 1 12347 12408 7.31285 
944 1 12348 12349 5.28763 
945 1 12348 12408 5.0516 
946 1 12348 12409 7.31284 
947 1 12341 12342 5.28763 
948 1 12341 12401 5.0516 
949 1 12341 12402 7.31284 
950 1 12342 12343 5.28763 
951 1 12342 12402 5.0516 
952 1 12342 12403 7.31285 
953 1 342 343 5.11134 
954 1 342 402 5.0516 
955 1 342 403 7.18641 
956 1 12343 12344 5.28763 
957 1 12343 12403 5.0516 
958 1 12343 12404 7.31284 
959 1 343 344 5.11133 
960 1 343 403 5.0516 
961 1 343 404 7.1864 
962 1 344 345 5.11133 
963 1 344 404 5.0516 
964 1 344 405 7.1864 
965 1 348 349 5.11133 
966 1 348 408 5.0516 
967 1 348 409 7.1864 
968 1 349 350 5.11134 
969 1 349 409 5.0516 
970 1 349 410 7.18641 
971 1 350 351 5.11134 
972 1 350 410 5.0516 
973 1 350 411 7.18641 
974 1 12349 12350 5.28763 
975 1 12349 12409 5.0516 
976 1 12349 12410 7.31285 
977 1 12350 12351 5.28763 
978 1 12350 12410 5.0516 
979 1 12350 12411 7.31284 
980 1 12351 12352 5.28763 
981 1 12351 12411 5.0516 
982 1 12351 12412 7.31285 
983 1 12339 12340 5.28763 
984 1 12339 12399 5.0516 
985 1 12339 12400 7.31285 
986 1 12340 12341 5.28763 
987 1 12340 12400 5.0516 
988 1 12340 12401 7.31285 
989 1 340 341 5.11134 
990 1 340 400 5.0516 
991 1 340 401 7.18641 
992 1 341 342 5.11134 
993 1 341 401 5.0516 
994 1 341 402 7.18641 
995 1 351 352 5.11134 
996 1 351 411 5.0516 
997 1 351 412 7.18641 
998 1 12352 12353 5.28763 
999 1 12352 12412 5.0516 
1000 1 12352 12413 7.31285 
1001 1 352 353 5.11134 
1002 1 352 412 5.0516 
1003 1 352 413 7.18641 
1004 1 12353 12354 5.28761 
1005 1 12353 12413 5.0516 
1006 1 12353 12414 7.31283 
1007 1 338 339 5.11133 
1008 1 338 398 5.0516 
1009 1 338 399 7.1864 
1010 1 12338 12339 5.28761 
1011 1 12338 12398 5.0516 
1012 1 12338 12399 7.31283 
1013 1 339 340 5.11134 
1014 1 339 399 5.0516 
1015 1 339 400 7.18641 
1016 1 353 354 5.11133 
1017 1 353 413 5.0516 
1018 1 353 414 7.1864 
1019 1 354 355 5.11134 
1020 1 354 414 5.0516 
1021 1 354 415 7.18641 
1022 1 12354 12355 5.28763 
1023 1 12354 12414 5.0516 
1024 1 12354 12415 7.31285 
1025 1 336 337 5.11134 
1026 1 336 396 5.0516 
1027 1 336 397 7.18641 
1028 1 12336 12337 5.28763 
1029 1 12336 12396 5.0516 
1030 1 12336 12397 7.31285 
1031 1 12337 12338 5.28763 
1032 1 12337 12397 5.0516 
1033 1 12337 12398 7.31285 
1034 1 337 338 5.11134 
1035 1 337 397 5.0516 
1036 1 337 398 7.18641 
1037 1 355 356 5.11134 
1038 1 355 415 5.0516 
1039 1 355 416 7.18641 
1040 1 356 357 5.11134 
1041 1 356 416 5.0516 
1042 1 356 417 7.18641 
1043 1 12355 12356 5.28763 
1044 1 12355 12415 5.0516 
1045 1 12355 12416 7.31285 
1046 1 12356 12357 5.28763 
1047 1 12356 12416 5.0516 
1048 1 12356 12417 7.31284 
1049 1 12335 12336 5.28763 
1050 1 12335 12395 5.0516 
1051 1 12335 12396 7.31284 
1052 1 335 336 5.11134 
1053 1 335 395 5.0516 
1054 1 335 396 7.18641 
1055 1 357 358 5.11134 
1056 1 357 417 5.0516 
1057 1 357 418 7.18641 
1058 1 12357 12358 5.28763 
1059 1 12357 12417 5.0516 
1060 1 12357 12418 7.31285 
1061 1 334 335 5.11134 
1062 1 334 394 5.0516 
1063 1 334 395 7.18641 
1064 1 12334 12335 5.28763 
1065 1 12334 12394 5.0516 
1066 1 12334 12395 7.31285 
1067 1 358 359 5.11133 
1068 1 358 418 5.0516 
1069 1 358 419 7.1864 
1070 1 12358 12359 5.28763 
1071 1 12358 12418 5.0516 
1072 1 12358 12419 7.31284 
1073 1 12333 12334 5.28763 
1074 1 12333 12393 5.0516 
1075 1 12333 12394 7.31284 
1076 1 333 334 5.11133 
1077 1 333 393 5.0516 
1078 1 333 394 7.1864 
1079 1 12359 12360 5.28763 
1080 1 12359 12419 5.0516 
1081 1 12359 12420 7.31285 
1082 1 359 360 5.11133 
1083 1 359 419 5.0516 
1084 1 359 420 7.1864 
1085 1 332 333 5.11133 
1086 1 332 392 5.0516 
1087 1 332 393 7.1864 
1088 1 12332 12333 5.28763 
1089 1 12332 12392 5.0516 
1090 1 12332 12393 7.31285 
1091 1 331 332 5.11134 
1092 1 331 391 5.0516 
1093 1 331 392 7.18641 
1094 1 12331 12332 5.28762 
1095 1 12331 12391 5.0516 
1096 1 12331 12392 7.31284 
1097 1 360 420 5.0516 
1098 1 360 361 7.18641 
1099 1 12360 12420 5.0516 
1100 1 12360 12361 7.31284 
1101 1 301 302 5.11134 
1102 1 301 360 5.11134 
1103 1 301 361 5.0516 
1104 1 301 362 7.18641 
1105 1 12301 12302 5.28762 
1106 1 12301 12360 5.28762 
1107 1 12301 12361 5.0516 
1108 1 12301 12362 7.31284 
1109 1 12404 12405 5.28763 
1110 1 12404 12464 5.0516 
1111 1 12404 12465 7.31285 
1112 1 405 406 5.11134 
1113 1 405 465 5.0516 
1114 1 405 466 7.18641 
1115 1 12405 12406 5.28762 
1116 1 12405 12465 5.0516 
1117 1 12405 12466 7.31284 
1118 1 406 407 5.11134 
1119 1 406 466 5.0516 
1120 1 406 467 7.18641 
1121 1 12406 12407 5.28762 
1122 1 12406 12466 5.0516 
1123 1 12406 12467 7.31284 
1124 1 407 408 5.11133 
1125 1 407 467 5.0516 
1126 1 407 468 7.1864 
1127 1 12407 12408 5.28763 
1128 1 12407 12467 5.0516 
1129 1 12407 12468 7.31285 
1130 1 12408 12409 5.28763 
1131 1 12408 12468 5.0516 
1132 1 12408 12469 7.31284 
1133 1 12401 12402 5.28763 
1134 1 12401 12461 5.0516 
1135 1 12401 12462 7.31284 
1136 1 12402 12403 5.28763 
1137 1 12402 12462 5.0516 
1138 1 12402 12463 7.31285 
1139 1 402 403 5.11134 
1140 1 402 462 5.0516 
1141 1 402 463 7.18641 
1142 1 12403 12404 5.28763 
1143 1 12403 12463 5.0516 
1144 1 12403 12464 7.31284 
1145 1 403 404 5.11133 
1146 1 403 463 5.0516 
1147 1 403 464 7.1864 
1148 1 404 405 5.11133 
1149 1 404 464 5.0516 
1150 1 404 465 7.1864 
1151 1 408 409 5.11133 
1152 1 408 468 5.0516 
1153 1 408 469 7.1864 
1154 1 409 410 5.11134 
1155 1 409 469 5.0516 
1156 1 409 470 7.18641 
1157 1 410 411 5.11134 
1158 1 410 470 5.0516 
1159 1 410 471 7.18641 
1160 1 12409 12410 5.28763 
1161 1 12409 12469 5.0516 
1162 1 12409 12470 7.31285 
1163 1 12410 12411 5.28763 
1164 1 12410 12470 5.0516 
1165 1 12410 12471 7.31284 
1166 1 12411 12412 5.28763 
1167 1 12411 12471 5.0516 
1168 1 12411 12472 7.31285 
1169 1 12399 12400 5.28763 
1170 1 12399 12459 5.0516 
1171 1 12399 12460 7.31285 
1172 1 12400 12401 5.28763 
1173 1 12400 12460 5.0516 
1174 1 12400 12461 7.31285 
1175 1 400 401 5.11134 
1176 1 400 460 5.0516 
1177 1 400 461 7.18641 
1178 1 401 402 5.11134 
1179 1 401 461 5.0516 
1180 1 401 462 7.18641 
1181 1 411 412 5.11134 
1182 1 411 471 5.0516 
1183 1 411 472 7.18641 
1184 1 12412 12413 5.28763 
1185 1 12412 12472 5.0516 
1186 1 12412 12473 7.31285 
1187 1 412 413 5.11134 
1188 1 412 472 5.0516 
1189 1 412 473 7.18641 
1190 1 12413 12414 5.28761 
1191 1 12413 12473 5.0516 
1192 1 12413 12474 7.31283 
1193 1 398 399 5.11133 
1194 1 398 458 5.0516 
1195 1 398 459 7.1864 
1196 1 12398 12399 5.28761 
1197 1 12398 12458 5.0516 
1198 1 12398 12459 7.31283 
1199 1 399 400 5.11134 
1200 1 399 459 5.0516 
1201 1 399 460 7.18641 
1202 1 413 414 5.11133 
1203 1 413 473 5.0516 
1204 1 413 474 7.1864 
1205 1 414 415 5.11134 
1206 1 414 474 5.0516 
1207 1 414 475 7.18641 
1208 1 12414 12415 5.28763 
1209 1 12414 12474 5.0516 
1210 1 12414 12475 7.31285 
1211 1 396 397 5.11134 
1212 1 396 456 5.0516 