ITEM: TIMESTEP
7000
ITEM: NUMBER OF ATOMS
24000
ITEM: BOX BOUNDS pp pp pp
-1.3470938117122948e+03 1.3470938117122948e+03
-1.3470938117122948e+03 1.3470938117122948e+03
-1.3470938117122948e+03 1.3470938117122948e+03
ITEM: ATOMS id type x y z c_pte c_csym[1] c_csym[2] c_csym[4] 
12044 1 -10.5029 -49.4123 1.68388 2.98481e+12 4.20349e+12 -1.20283e+13 -3.49656e+12 
45 1 -5.10433 -48.5645 1.68388 2.82567e+12 4.27232e+12 -1.2582e+13 -1.69101e+12 
12045 1 -5.28037 -50.2395 1.68388 2.98474e+12 4.75313e+12 -1.25771e+13 -1.73258e+12 
46 1 7.40225e-06 -48.832 1.68388 2.82579e+12 4.43976e+12 -1.27508e+13 9.79354e+10 
12046 1 7.75463e-06 -50.5162 1.68388 2.98484e+12 4.92399e+12 -1.27493e+13 1.06731e+11 
47 1 5.10435 -48.5645 1.68388 2.82566e+12 4.23159e+12 -1.25413e+13 1.88259e+12 
12047 1 5.28038 -50.2395 1.68388 2.98474e+12 4.70876e+12 -1.25327e+13 1.94139e+12 
12048 1 10.5029 -49.4123 1.68388 2.98481e+12 4.11666e+12 -1.19415e+13 3.69157e+12 
12041 1 -25.2581 -43.7483 1.68388 2.98491e+12 5.97906e+11 -8.42392e+12 -7.59972e+12 
12042 1 -20.5468 -46.1488 1.68388 2.9849e+12 2.0794e+12 -9.90528e+12 -6.49577e+12 
42 1 -19.8617 -44.6102 1.68388 2.82583e+12 1.66846e+12 -9.98009e+12 -6.32226e+12 
12043 1 -15.6104 -48.0438 1.68388 2.98481e+12 3.29913e+12 -1.11239e+13 -5.10757e+12 
43 1 -15.0899 -46.442 1.68388 2.82573e+12 2.85578e+12 -1.11663e+13 -4.97279e+12 
44 1 -10.1527 -47.7649 1.68388 2.82573e+12 3.73649e+12 -1.20471e+13 -3.40641e+12 
48 1 10.1527 -47.7649 1.68388 2.82573e+12 3.65682e+12 -1.19674e+13 3.58534e+12 
49 1 15.0899 -46.442 1.68388 2.82573e+12 2.74066e+12 -1.10512e+13 5.13125e+12 
50 1 19.8618 -44.6102 1.68388 2.82583e+12 1.52291e+12 -9.83454e+12 6.45332e+12 
12049 1 15.6104 -48.0438 1.68388 2.98481e+12 3.17366e+12 -1.09984e+13 5.28028e+12 
12050 1 20.5468 -46.1488 1.68388 2.9849e+12 1.92076e+12 -9.74665e+12 6.6386e+12 
12051 1 25.2581 -43.7483 1.68388 2.98491e+12 4.13041e+11 -8.23905e+12 7.70646e+12 
12039 1 -33.8019 -37.5408 1.68388 2.98492e+12 -2.88325e+12 -4.94295e+12 -8.77753e+12 
12040 1 -29.6927 -40.8685 1.68388 2.9848e+12 -1.08027e+12 -6.7444e+12 -8.37089e+12 
40 1 -28.7027 -39.5059 1.68388 2.82573e+12 -1.40611e+12 -6.9043e+12 -8.14404e+12 
41 1 -24.416 -42.2897 1.68388 2.82584e+12 2.26722e+11 -8.53846e+12 -7.39508e+12 
51 1 24.416 -42.2897 1.68388 2.82584e+12 5.7094e+10 -8.36884e+12 7.49301e+12 
12052 1 29.6927 -40.8685 1.68388 2.9848e+12 -1.2833e+12 -6.54138e+12 8.43686e+12 
52 1 28.7027 -39.5059 1.68388 2.82573e+12 -1.59238e+12 -6.71803e+12 8.20456e+12 
12053 1 33.8019 -37.5408 1.68388 2.98491e+12 -3.09556e+12 -4.73066e+12 8.79984e+12 
38 1 -36.2892 -32.675 1.68388 2.82585e+12 -4.95704e+12 -3.35489e+12 -8.55885e+12 
12038 1 -37.5408 -33.8019 1.68388 2.98491e+12 -4.73066e+12 -3.09556e+12 -8.79984e+12 
39 1 -32.675 -36.2892 1.68388 2.82585e+12 -3.16009e+12 -5.15183e+12 -8.53838e+12 
53 1 32.675 -36.2892 1.68388 2.82585e+12 -3.35489e+12 -4.95704e+12 8.55885e+12 
54 1 36.2892 -32.675 1.68388 2.82585e+12 -5.15183e+12 -3.16009e+12 8.53838e+12 
12054 1 37.5408 -33.8019 1.68388 2.98492e+12 -4.94295e+12 -2.88325e+12 8.77753e+12 
36 1 -42.2897 -24.416 1.68388 2.82584e+12 -8.36884e+12 5.7094e+10 -7.49301e+12 
12036 1 -43.7483 -25.2581 1.68388 2.98491e+12 -8.23905e+12 4.13041e+11 -7.70646e+12 
12037 1 -40.8685 -29.6927 1.68388 2.9848e+12 -6.54138e+12 -1.2833e+12 -8.43686e+12 
37 1 -39.5059 -28.7027 1.68388 2.82573e+12 -6.71803e+12 -1.59238e+12 -8.20456e+12 
55 1 39.5059 -28.7027 1.68388 2.82573e+12 -6.9043e+12 -1.40611e+12 8.14404e+12 
56 1 42.2897 -24.416 1.68388 2.82584e+12 -8.53846e+12 2.26722e+11 7.39508e+12 
12055 1 40.8685 -29.6927 1.68388 2.9848e+12 -6.7444e+12 -1.08027e+12 8.37089e+12 
12056 1 43.7483 -25.2581 1.68388 2.98491e+12 -8.42392e+12 5.97906e+11 7.59972e+12 
12035 1 -46.1488 -20.5468 1.68388 2.9849e+12 -9.74665e+12 1.92076e+12 -6.6386e+12 
35 1 -44.6102 -19.8618 1.68388 2.82583e+12 -9.83454e+12 1.52291e+12 -6.45332e+12 
57 1 44.6102 -19.8617 1.68388 2.82583e+12 -9.98009e+12 1.66846e+12 6.32226e+12 
12057 1 46.1488 -20.5468 1.68388 2.9849e+12 -9.90528e+12 2.0794e+12 6.49577e+12 
34 1 -46.442 -15.0899 1.68388 2.82573e+12 -1.10512e+13 2.74066e+12 -5.13125e+12 
12034 1 -48.0438 -15.6104 1.68388 2.98481e+12 -1.09984e+13 3.17366e+12 -5.28028e+12 
58 1 46.442 -15.0899 1.68388 2.82573e+12 -1.11663e+13 2.85578e+12 4.97279e+12 
12058 1 48.0438 -15.6104 1.68388 2.98481e+12 -1.11239e+13 3.29913e+12 5.10757e+12 
12033 1 -49.4123 -10.5029 1.68388 2.98481e+12 -1.19415e+13 4.11666e+12 -3.69157e+12 
33 1 -47.7649 -10.1527 1.68388 2.82573e+12 -1.19674e+13 3.65682e+12 -3.58534e+12 
12059 1 49.4123 -10.5029 1.68388 2.98481e+12 -1.20283e+13 4.20349e+12 3.49656e+12 
59 1 47.7649 -10.1527 1.68388 2.82573e+12 -1.20471e+13 3.73649e+12 3.40641e+12 
32 1 -48.5645 -5.10435 1.68388 2.82566e+12 -1.25413e+13 4.23159e+12 -1.88259e+12 
12032 1 -50.2395 -5.28038 1.68388 2.98474e+12 -1.25327e+13 4.70876e+12 -1.94139e+12 
31 1 -48.832 -7.40225e-06 1.68388 2.82579e+12 -1.27508e+13 4.43976e+12 -9.79354e+10 
12031 1 -50.5162 -7.75462e-06 1.68388 2.98484e+12 -1.27493e+13 4.92399e+12 -1.06731e+11 
60 1 48.5645 -5.10433 1.68388 2.82567e+12 -1.2582e+13 4.27232e+12 1.69101e+12 
12060 1 50.2395 -5.28037 1.68388 2.98474e+12 -1.25771e+13 4.75313e+12 1.73258e+12 
12104 1 -10.5029 -49.4123 6.73547 4.32978e+12 6.10419e+12 -1.18917e+13 -4.00611e+12 
12164 1 -10.5029 -49.4123 11.7871 4.32979e+12 6.1042e+12 -1.18917e+13 -4.00611e+12 
105 1 -5.10434 -48.5645 6.73547 4.10429e+12 6.10489e+12 -1.25361e+13 -1.98101e+12 
12105 1 -5.28037 -50.2395 6.73547 4.32971e+12 6.7405e+12 -1.25272e+13 -2.04761e+12 
165 1 -5.10434 -48.5645 11.7871 4.1043e+12 6.1049e+12 -1.25361e+13 -1.98101e+12 
12165 1 -5.28037 -50.2395 11.7871 4.32972e+12 6.74051e+12 -1.25272e+13 -2.04761e+12 
106 1 -2.27374e-13 -48.832 6.73547 4.10441e+12 6.31311e+12 -1.27457e+13 713738 
12106 1 -2.27374e-13 -50.5162 6.73547 4.32981e+12 6.95568e+12 -1.27437e+13 777986 
166 1 -2.27374e-13 -48.832 11.7871 4.10442e+12 6.31312e+12 -1.27457e+13 144.693 
12166 1 -2.27374e-13 -50.5162 11.7871 4.32982e+12 6.95568e+12 -1.27437e+13 -112.098 
107 1 5.10434 -48.5645 6.73547 4.10429e+12 6.10489e+12 -1.25361e+13 1.98101e+12 
12107 1 5.28037 -50.2395 6.73547 4.32971e+12 6.7405e+12 -1.25272e+13 2.04761e+12 
167 1 5.10434 -48.5645 11.7871 4.1043e+12 6.1049e+12 -1.25361e+13 1.98101e+12 
12167 1 5.28037 -50.2395 11.7871 4.32972e+12 6.74051e+12 -1.25272e+13 2.04761e+12 
12108 1 10.5029 -49.4123 6.73547 4.32978e+12 6.10419e+12 -1.18917e+13 4.00611e+12 
12168 1 10.5029 -49.4123 11.7871 4.32979e+12 6.1042e+12 -1.18917e+13 4.00611e+12 
12101 1 -25.2581 -43.7483 6.73547 4.32988e+12 2.03065e+12 -7.81935e+12 -8.53041e+12 
12161 1 -25.2581 -43.7483 11.7871 4.32989e+12 2.03066e+12 -7.81935e+12 -8.53041e+12 
12102 1 -20.5468 -46.1488 6.73547 4.32987e+12 3.69659e+12 -9.48516e+12 -7.32002e+12 
102 1 -19.8617 -44.6102 6.73547 4.10445e+12 3.15997e+12 -9.59312e+12 -7.08197e+12 
12103 1 -15.6104 -48.0438 6.73547 4.32978e+12 5.07462e+12 -1.08621e+13 -5.78937e+12 
12162 1 -20.5468 -46.1488 11.7871 4.32988e+12 3.6966e+12 -9.48516e+12 -7.32003e+12 
162 1 -19.8617 -44.6102 11.7871 4.10446e+12 3.15997e+12 -9.59311e+12 -7.08197e+12 
12163 1 -15.6104 -48.0438 11.7871 4.32979e+12 5.07463e+12 -1.08621e+13 -5.78938e+12 
103 1 -15.0899 -46.442 6.73547 4.10435e+12 4.49316e+12 -1.09252e+13 -5.60108e+12 
104 1 -10.1527 -47.7649 6.73547 4.10435e+12 5.48924e+12 -1.19213e+13 -3.87581e+12 
163 1 -15.0899 -46.442 11.7871 4.10436e+12 4.49317e+12 -1.09252e+13 -5.60108e+12 
164 1 -10.1527 -47.7649 11.7871 4.10436e+12 5.48925e+12 -1.19213e+13 -3.87581e+12 
108 1 10.1527 -47.7649 6.73547 4.10435e+12 5.48924e+12 -1.19213e+13 3.87581e+12 
109 1 15.0899 -46.442 6.73547 4.10435e+12 4.49316e+12 -1.09252e+13 5.60108e+12 
168 1 10.1527 -47.7649 11.7871 4.10436e+12 5.48925e+12 -1.19213e+13 3.87581e+12 
169 1 15.0899 -46.442 11.7871 4.10436e+12 4.49317e+12 -1.09252e+13 5.60108e+12 
110 1 19.8617 -44.6102 6.73547 4.10445e+12 3.15997e+12 -9.59311e+12 7.08197e+12 
12109 1 15.6104 -48.0438 6.73547 4.32978e+12 5.07462e+12 -1.08621e+13 5.78937e+12 
12110 1 20.5468 -46.1488 6.73547 4.32987e+12 3.69659e+12 -9.48516e+12 7.32002e+12 
170 1 19.8617 -44.6102 11.7871 4.10446e+12 3.15997e+12 -9.59311e+12 7.08197e+12 
12169 1 15.6104 -48.0438 11.7871 4.32979e+12 5.07463e+12 -1.08621e+13 5.78938e+12 
12170 1 20.5468 -46.1488 11.7871 4.32988e+12 3.6966e+12 -9.48516e+12 7.32003e+12 
12111 1 25.2581 -43.7483 6.73547 4.32988e+12 2.03065e+12 -7.81935e+12 8.53041e+12 
12171 1 25.2581 -43.7483 11.7871 4.32989e+12 2.03066e+12 -7.81935e+12 8.53041e+12 
12099 1 -33.8019 -37.5408 6.73547 4.32989e+12 -1.86486e+12 -3.92404e+12 -9.79617e+12 
12159 1 -33.8019 -37.5408 11.7871 4.3299e+12 -1.86485e+12 -3.92403e+12 -9.79618e+12 
12100 1 -29.6927 -40.8685 6.73547 4.32977e+12 1.49921e+11 -5.93727e+12 -9.36733e+12 
100 1 -28.7027 -39.5059 6.73547 4.10435e+12 -2.71351e+11 -6.16058e+12 -9.06269e+12 
12160 1 -29.6927 -40.8685 11.7871 4.32978e+12 1.49927e+11 -5.93727e+12 -9.36734e+12 
160 1 -28.7027 -39.5059 11.7871 4.10436e+12 -2.71346e+11 -6.16058e+12 -9.06269e+12 
101 1 -24.416 -42.2897 6.73547 4.10446e+12 1.5482e+12 -7.98146e+12 -8.253e+12 
161 1 -24.416 -42.2897 11.7871 4.10447e+12 1.54821e+12 -7.98146e+12 -8.25301e+12 
111 1 24.416 -42.2897 6.73547 4.10446e+12 1.5482e+12 -7.98146e+12 8.253e+12 
171 1 24.416 -42.2897 11.7871 4.10447e+12 1.54821e+12 -7.98146e+12 8.25301e+12 
12112 1 29.6927 -40.8685 6.73547 4.32977e+12 1.4992e+11 -5.93727e+12 9.36733e+12 
112 1 28.7027 -39.5059 6.73547 4.10435e+12 -2.71352e+11 -6.16058e+12 9.06269e+12 
12172 1 29.6927 -40.8685 11.7871 4.32978e+12 1.49927e+11 -5.93727e+12 9.36734e+12 
172 1 28.7027 -39.5059 11.7871 4.10436e+12 -2.71346e+11 -6.16058e+12 9.06269e+12 
12113 1 33.8019 -37.5408 6.73547 4.32989e+12 -1.86486e+12 -3.92404e+12 9.79617e+12 
12173 1 33.8019 -37.5408 11.7871 4.3299e+12 -1.86485e+12 -3.92403e+12 9.79618e+12 
98 1 -36.2892 -32.675 6.73547 4.10447e+12 -4.21284e+12 -2.22061e+12 -9.47761e+12 
12098 1 -37.5408 -33.8019 6.73547 4.32989e+12 -3.92404e+12 -1.86486e+12 -9.79617e+12 
158 1 -36.2892 -32.675 11.7871 4.10448e+12 -4.21284e+12 -2.22061e+12 -9.47761e+12 
12158 1 -37.5408 -33.8019 11.7871 4.3299e+12 -3.92403e+12 -1.86485e+12 -9.79618e+12 
99 1 -32.675 -36.2892 6.73547 4.10447e+12 -2.22061e+12 -4.21284e+12 -9.47761e+12 
159 1 -32.675 -36.2892 11.7871 4.10448e+12 -2.22061e+12 -4.21284e+12 -9.47761e+12 
113 1 32.675 -36.2892 6.73547 4.10447e+12 -2.22061e+12 -4.21284e+12 9.47761e+12 
173 1 32.675 -36.2892 11.7871 4.10448e+12 -2.22061e+12 -4.21284e+12 9.47761e+12 
114 1 36.2892 -32.675 6.73547 4.10447e+12 -4.21284e+12 -2.22061e+12 9.47761e+12 
12114 1 37.5408 -33.8019 6.73547 4.32989e+12 -3.92404e+12 -1.86486e+12 9.79617e+12 
174 1 36.2892 -32.675 11.7871 4.10448e+12 -4.21284e+12 -2.22061e+12 9.47761e+12 
12174 1 37.5408 -33.8019 11.7871 4.3299e+12 -3.92403e+12 -1.86485e+12 9.79618e+12 
96 1 -42.2897 -24.416 6.73547 4.10446e+12 -7.98146e+12 1.5482e+12 -8.253e+12 
12096 1 -43.7483 -25.2581 6.73547 4.32988e+12 -7.81935e+12 2.03065e+12 -8.53041e+12 
12097 1 -40.8685 -29.6927 6.73547 4.32977e+12 -5.93727e+12 1.4992e+11 -9.36733e+12 
97 1 -39.5059 -28.7027 6.73547 4.10435e+12 -6.16058e+12 -2.71352e+11 -9.06269e+12 
156 1 -42.2897 -24.416 11.7871 4.10447e+12 -7.98146e+12 1.54821e+12 -8.25301e+12 
12156 1 -43.7483 -25.2581 11.7871 4.32989e+12 -7.81935e+12 2.03066e+12 -8.53041e+12 
12157 1 -40.8685 -29.6927 11.7871 4.32978e+12 -5.93727e+12 1.49927e+11 -9.36734e+12 
157 1 -39.5059 -28.7027 11.7871 4.10436e+12 -6.16058e+12 -2.71346e+11 -9.06269e+12 
115 1 39.5059 -28.7027 6.73547 4.10435e+12 -6.16058e+12 -2.71351e+11 9.06269e+12 
116 1 42.2897 -24.416 6.73547 4.10446e+12 -7.98146e+12 1.5482e+12 8.253e+12 
12115 1 40.8685 -29.6927 6.73547 4.32977e+12 -5.93727e+12 1.49921e+11 9.36733e+12 
12116 1 43.7483 -25.2581 6.73547 4.32988e+12 -7.81935e+12 2.03065e+12 8.53041e+12 
175 1 39.5059 -28.7027 11.7871 4.10436e+12 -6.16058e+12 -2.71346e+11 9.06269e+12 
176 1 42.2897 -24.416 11.7871 4.10447e+12 -7.98146e+12 1.54821e+12 8.25301e+12 
12175 1 40.8685 -29.6927 11.7871 4.32978e+12 -5.93727e+12 1.49927e+11 9.36734e+12 
12176 1 43.7483 -25.2581 11.7871 4.32989e+12 -7.81935e+12 2.03066e+12 8.53041e+12 
12095 1 -46.1488 -20.5468 6.73547 4.32987e+12 -9.48516e+12 3.69659e+12 -7.32002e+12 
12155 1 -46.1488 -20.5468 11.7871 4.32988e+12 -9.48516e+12 3.6966e+12 -7.32003e+12 
95 1 -44.6102 -19.8617 6.73547 4.10445e+12 -9.59311e+12 3.15997e+12 -7.08197e+12 
155 1 -44.6102 -19.8617 11.7871 4.10446e+12 -9.59311e+12 3.15997e+12 -7.08197e+12 
117 1 44.6102 -19.8617 6.73547 4.10445e+12 -9.59312e+12 3.15997e+12 7.08197e+12 
177 1 44.6102 -19.8617 11.7871 4.10446e+12 -9.59311e+12 3.15997e+12 7.08197e+12 
12117 1 46.1488 -20.5468 6.73547 4.32987e+12 -9.48516e+12 3.69659e+12 7.32002e+12 
12177 1 46.1488 -20.5468 11.7871 4.32988e+12 -9.48516e+12 3.6966e+12 7.32003e+12 
94 1 -46.442 -15.0899 6.73547 4.10435e+12 -1.09252e+13 4.49316e+12 -5.60108e+12 
12094 1 -48.0438 -15.6104 6.73547 4.32978e+12 -1.08621e+13 5.07462e+12 -5.78937e+12 
154 1 -46.442 -15.0899 11.7871 4.10436e+12 -1.09252e+13 4.49317e+12 -5.60108e+12 
12154 1 -48.0438 -15.6104 11.7871 4.32979e+12 -1.08621e+13 5.07463e+12 -5.78938e+12 
118 1 46.442 -15.0899 6.73547 4.10435e+12 -1.09252e+13 4.49316e+12 5.60108e+12 
12118 1 48.0438 -15.6104 6.73547 4.32978e+12 -1.08621e+13 5.07462e+12 5.78937e+12 
178 1 46.442 -15.0899 11.7871 4.10436e+12 -1.09252e+13 4.49317e+12 5.60108e+12 
12178 1 48.0438 -15.6104 11.7871 4.32979e+12 -1.08621e+13 5.07463e+12 5.78938e+12 
12093 1 -49.4123 -10.5029 6.73547 4.32978e+12 -1.18917e+13 6.10419e+12 -4.00611e+12 
93 1 -47.7649 -10.1527 6.73547 4.10435e+12 -1.19213e+13 5.48924e+12 -3.87581e+12 
12153 1 -49.4123 -10.5029 11.7871 4.32979e+12 -1.18917e+13 6.1042e+12 -4.00611e+12 
153 1 -47.7649 -10.1527 11.7871 4.10436e+12 -1.19213e+13 5.48925e+12 -3.87581e+12 
12119 1 49.4123 -10.5029 6.73547 4.32978e+12 -1.18917e+13 6.10419e+12 4.00611e+12 
119 1 47.7649 -10.1527 6.73547 4.10435e+12 -1.19213e+13 5.48924e+12 3.87581e+12 
12179 1 49.4123 -10.5029 11.7871 4.32979e+12 -1.18917e+13 6.1042e+12 4.00611e+12 
179 1 47.7649 -10.1527 11.7871 4.10436e+12 -1.19213e+13 5.48925e+12 3.87581e+12 
92 1 -48.5645 -5.10434 6.73547 4.10429e+12 -1.25361e+13 6.10489e+12 -1.98101e+12 
12092 1 -50.2395 -5.28037 6.73547 4.32971e+12 -1.25272e+13 6.7405e+12 -2.04761e+12 
152 1 -48.5645 -5.10434 11.7871 4.1043e+12 -1.25361e+13 6.1049e+12 -1.98101e+12 
12152 1 -50.2395 -5.28037 11.7871 4.32972e+12 -1.25272e+13 6.74051e+12 -2.04761e+12 
91 1 -48.832 -2.27374e-13 6.73547 4.10441e+12 -1.27457e+13 6.31311e+12 -713946 
151 1 -48.832 -2.27374e-13 11.7871 4.10442e+12 -1.27457e+13 6.31312e+12 115.137 
12151 1 -50.5162 -2.27374e-13 11.7871 4.32982e+12 -1.27437e+13 6.95568e+12 -4.67513 
12091 1 -50.5162 -2.27374e-13 6.73547 4.32981e+12 -1.27437e+13 6.95568e+12 -778175 
120 1 48.5645 -5.10434 6.73547 4.10429e+12 -1.25361e+13 6.10489e+12 1.98101e+12 
12120 1 50.2395 -5.28037 6.73547 4.32971e+12 -1.25272e+13 6.7405e+12 2.04761e+12 
180 1 48.5645 -5.10434 11.7871 4.1043e+12 -1.25361e+13 6.1049e+12 1.98101e+12 
12180 1 50.2395 -5.28037 11.7871 4.32972e+12 -1.25272e+13 6.74051e+12 2.04761e+12 
12061 1 50.5162 -2.27374e-13 6.73547 4.32981e+12 -1.27437e+13 6.95568e+12 -777985 
121 1 48.832 -2.27374e-13 11.7871 4.10442e+12 -1.27457e+13 6.31312e+12 -149.128 
12121 1 50.5162 -2.27374e-13 11.7871 4.32982e+12 -1.27437e+13 6.95568e+12 110.103 
61 1 48.832 -2.27374e-13 6.73547 4.10441e+12 -1.27457e+13 6.31311e+12 -713823 
12224 1 -10.5029 -49.4123 16.8387 4.32979e+12 6.1042e+12 -1.18917e+13 -4.00611e+12 
225 1 -5.10434 -48.5645 16.8387 4.1043e+12 6.1049e+12 -1.25361e+13 -1.98101e+12 
12225 1 -5.28037 -50.2395 16.8387 4.32972e+12 6.74051e+12 -1.25272e+13 -2.04761e+12 
226 1 -2.27374e-13 -48.832 16.8387 4.10442e+12 6.31312e+12 -1.27457e+13 147.725 
12226 1 -2.27374e-13 -50.5162 16.8387 4.32982e+12 6.95568e+12 -1.27437e+13 46.297 
227 1 5.10434 -48.5645 16.8387 4.1043e+12 6.1049e+12 -1.25361e+13 1.98101e+12 
12227 1 5.28037 -50.2395 16.8387 4.32972e+12 6.74051e+12 -1.25272e+13 2.04761e+12 
12228 1 10.5029 -49.4123 16.8387 4.32979e+12 6.1042e+12 -1.18917e+13 4.00611e+12 
12221 1 -25.2581 -43.7483 16.8387 4.32989e+12 2.03066e+12 -7.81935e+12 -8.53041e+12 
12222 1 -20.5468 -46.1488 16.8387 4.32988e+12 3.6966e+12 -9.48516e+12 -7.32003e+12 
222 1 -19.8617 -44.6102 16.8387 4.10446e+12 3.15997e+12 -9.59311e+12 -7.08197e+12 
12223 1 -15.6104 -48.0438 16.8387 4.32979e+12 5.07463e+12 -1.08621e+13 -5.78938e+12 
223 1 -15.0899 -46.442 16.8387 4.10436e+12 4.49317e+12 -1.09252e+13 -5.60108e+12 
224 1 -10.1527 -47.7649 16.8387 4.10436e+12 5.48925e+12 -1.19213e+13 -3.87581e+12 
228 1 10.1527 -47.7649 16.8387 4.10436e+12 5.48925e+12 -1.19213e+13 3.87581e+12 
229 1 15.0899 -46.442 16.8387 4.10436e+12 4.49317e+12 -1.09252e+13 5.60108e+12 
230 1 19.8617 -44.6102 16.8387 4.10446e+12 3.15997e+12 -9.59311e+12 7.08197e+12 
12229 1 15.6104 -48.0438 16.8387 4.32979e+12 5.07463e+12 -1.08621e+13 5.78938e+12 
12230 1 20.5468 -46.1488 16.8387 4.32988e+12 3.6966e+12 -9.48516e+12 7.32003e+12 
12231 1 25.2581 -43.7483 16.8387 4.32989e+12 2.03066e+12 -7.81935e+12 8.53041e+12 
12219 1 -33.8019 -37.5408 16.8387 4.3299e+12 -1.86485e+12 -3.92403e+12 -9.79618e+12 
12220 1 -29.6927 -40.8685 16.8387 4.32978e+12 1.49927e+11 -5.93727e+12 -9.36734e+12 
220 1 -28.7027 -39.5059 16.8387 4.10436e+12 -2.71346e+11 -6.16058e+12 -9.06269e+12 
221 1 -24.416 -42.2897 16.8387 4.10447e+12 1.54821e+12 -7.98146e+12 -8.25301e+12 
231 1 24.416 -42.2897 16.8387 4.10447e+12 1.54821e+12 -7.98146e+12 8.25301e+12 
12232 1 29.6927 -40.8685 16.8387 4.32978e+12 1.49927e+11 -5.93727e+12 9.36734e+12 
232 1 28.7027 -39.5059 16.8387 4.10436e+12 -2.71346e+11 -6.16058e+12 9.06269e+12 
12233 1 33.8019 -37.5408 16.8387 4.3299e+12 -1.86485e+12 -3.92403e+12 9.79618e+12 
218 1 -36.2892 -32.675 16.8387 4.10448e+12 -4.21284e+12 -2.22061e+12 -9.47761e+12 
12218 1 -37.5408 -33.8019 16.8387 4.3299e+12 -3.92403e+12 -1.86485e+12 -9.79618e+12 
219 1 -32.675 -36.2892 16.8387 4.10448e+12 -2.22061e+12 -4.21284e+12 -9.47761e+12 
233 1 32.675 -36.2892 16.8387 4.10448e+12 -2.22061e+12 -4.21284e+12 9.47761e+12 
234 1 36.2892 -32.675 16.8387 4.10448e+12 -4.21284e+12 -2.22061e+12 9.47761e+12 
12234 1 37.5408 -33.8019 16.8387 4.3299e+12 -3.92403e+12 -1.86485e+12 9.79618e+12 
216 1 -42.2897 -24.416 16.8387 4.10447e+12 -7.98146e+12 1.54821e+12 -8.25301e+12 
12216 1 -43.7483 -25.2581 16.8387 4.32989e+12 -7.81935e+12 2.03066e+12 -8.53041e+12 
12217 1 -40.8685 -29.6927 16.8387 4.32978e+12 -5.93727e+12 1.49927e+11 -9.36734e+12 
217 1 -39.5059 -28.7027 16.8387 4.10436e+12 -6.16058e+12 -2.71346e+11 -9.06269e+12 
235 1 39.5059 -28.7027 16.8387 4.10436e+12 -6.16058e+12 -2.71346e+11 9.06269e+12 
236 1 42.2897 -24.416 16.8387 4.10447e+12 -7.98146e+12 1.54821e+12 8.25301e+12 
12235 1 40.8685 -29.6927 16.8387 4.32978e+12 -5.93727e+12 1.49927e+11 9.36734e+12 
12236 1 43.7483 -25.2581 16.8387 4.32989e+12 -7.81935e+12 2.03066e+12 8.53041e+12 
12215 1 -46.1488 -20.5468 16.8387 4.32988e+12 -9.48516e+12 3.6966e+12 -7.32003e+12 
215 1 -44.6102 -19.8617 16.8387 4.10446e+12 -9.59311e+12 3.15997e+12 -7.08197e+12 
237 1 44.6102 -19.8617 16.8387 4.10446e+12 -9.59311e+12 3.15997e+12 7.08197e+12 
12237 1 46.1488 -20.5468 16.8387 4.32988e+12 -9.48516e+12 3.6966e+12 7.32003e+12 
214 1 -46.442 -15.0899 16.8387 4.10436e+12 -1.09252e+13 4.49317e+12 -5.60108e+12 
12214 1 -48.0438 -15.6104 16.8387 4.32979e+12 -1.08621e+13 5.07463e+12 -5.78938e+12 
238 1 46.442 -15.0899 16.8387 4.10436e+12 -1.09252e+13 4.49317e+12 5.60108e+12 
12238 1 48.0438 -15.6104 16.8387 4.32979e+12 -1.08621e+13 5.07463e+12 5.78938e+12 
12213 1 -49.4123 -10.5029 16.8387 4.32979e+12 -1.18917e+13 6.1042e+12 -4.00611e+12 
213 1 -47.7649 -10.1527 16.8387 4.10436e+12 -1.19213e+13 5.48925e+12 -3.87581e+12 
12239 1 49.4123 -10.5029 16.8387 4.32979e+12 -1.18917e+13 6.1042e+12 4.00611e+12 
239 1 47.7649 -10.1527 16.8387 4.10436e+12 -1.19213e+13 5.48925e+12 3.87581e+12 
212 1 -48.5645 -5.10434 16.8387 4.1043e+12 -1.25361e+13 6.1049e+12 -1.98101e+12 
12212 1 -50.2395 -5.28037 16.8387 4.32972e+12 -1.25272e+13 6.74051e+12 -2.04761e+12 
211 1 -48.832 -2.27374e-13 16.8387 4.10442e+12 -1.27457e+13 6.31312e+12 -14.2762 
12211 1 -50.5162 -2.27374e-13 16.8387 4.32982e+12 -1.27437e+13 6.95568e+12 -120.585 
240 1 48.5645 -5.10434 16.8387 4.1043e+12 -1.25361e+13 6.1049e+12 1.98101e+12 
12240 1 50.2395 -5.28037 16.8387 4.32972e+12 -1.25272e+13 6.74051e+12 2.04761e+12 
181 1 48.832 -2.27374e-13 16.8387 4.10442e+12 -1.27457e+13 6.31312e+12 -120.586 
12181 1 50.5162 -2.27374e-13 16.8387 4.32982e+12 -1.27437e+13 6.95568e+12 -63.151 
12284 1 -10.5029 -49.4123 21.8903 4.32979e+12 6.1042e+12 -1.18917e+13 -4.00611e+12 
285 1 -5.10434 -48.5645 21.8903 4.1043e+12 6.1049e+12 -1.25361e+13 -1.98101e+12 
12285 1 -5.28037 -50.2395 21.8903 4.32972e+12 6.74051e+12 -1.25272e+13 -2.04761e+12 
286 1 -2.27374e-13 -48.832 21.8903 4.10442e+12 6.31312e+12 -1.27457e+13 132.851 
12286 1 -2.27374e-13 -50.5162 21.8903 4.32982e+12 6.95568e+12 -1.27437e+13 -139.67 
287 1 5.10434 -48.5645 21.8903 4.1043e+12 6.1049e+12 -1.25361e+13 1.98101e+12 
12287 1 5.28037 -50.2395 21.8903 4.32972e+12 6.74051e+12 -1.25272e+13 2.04761e+12 
12288 1 10.5029 -49.4123 21.8903 4.32979e+12 6.1042e+12 -1.18917e+13 4.00611e+12 
12281 1 -25.2581 -43.7483 21.8903 4.32989e+12 2.03066e+12 -7.81935e+12 -8.53041e+12 
12282 1 -20.5468 -46.1488 21.8903 4.32988e+12 3.6966e+12 -9.48516e+12 -7.32003e+12 
282 1 -19.8617 -44.6102 21.8903 4.10446e+12 3.15997e+12 -9.59311e+12 -7.08197e+12 
12283 1 -15.6104 -48.0438 21.8903 4.32979e+12 5.07463e+12 -1.08621e+13 -5.78938e+12 
283 1 -15.0899 -46.442 21.8903 4.10436e+12 4.49317e+12 -1.09252e+13 -5.60108e+12 
284 1 -10.1527 -47.7649 21.8903 4.10436e+12 5.48925e+12 -1.19213e+13 -3.87581e+12 
288 1 10.1527 -47.7649 21.8903 4.10436e+12 5.48925e+12 -1.19213e+13 3.87581e+12 
289 1 15.0899 -46.442 21.8903 4.10436e+12 4.49317e+12 -1.09252e+13 5.60108e+12 
290 1 19.8617 -44.6102 21.8903 4.10446e+12 3.15997e+12 -9.59311e+12 7.08197e+12 
12289 1 15.6104 -48.0438 21.8903 4.32979e+12 5.07463e+12 -1.08621e+13 5.78938e+12 
12290 1 20.5468 -46.1488 21.8903 4.32988e+12 3.6966e+12 -9.48516e+12 7.32003e+12 
12291 1 25.2581 -43.7483 21.8903 4.32989e+12 2.03066e+12 -7.81935e+12 8.53041e+12 
12279 1 -33.8019 -37.5408 21.8903 4.3299e+12 -1.86485e+12 -3.92403e+12 -9.79618e+12 
12280 1 -29.6927 -40.8685 21.8903 4.32978e+12 1.49927e+11 -5.93727e+12 -9.36734e+12 
280 1 -28.7027 -39.5059 21.8903 4.10436e+12 -2.71346e+11 -6.16058e+12 -9.06269e+12 
281 1 -24.416 -42.2897 21.8903 4.10447e+12 1.54821e+12 -7.98146e+12 -8.25301e+12 
291 1 24.416 -42.2897 21.8903 4.10447e+12 1.54821e+12 -7.98146e+12 8.25301e+12 
12292 1 29.6927 -40.8685 21.8903 4.32978e+12 1.49927e+11 -5.93727e+12 9.36734e+12 
292 1 28.7027 -39.5059 21.8903 4.10436e+12 -2.71346e+11 -6.16058e+12 9.06269e+12 
12293 1 33.8019 -37.5408 21.8903 4.3299e+12 -1.86485e+12 -3.92403e+12 9.79618e+12 
278 1 -36.2892 -32.675 21.8903 4.10448e+12 -4.21284e+12 -2.22061e+12 -9.47761e+12 
12278 1 -37.5408 -33.8019 21.8903 4.3299e+12 -3.92403e+12 -1.86485e+12 -9.79618e+12 
279 1 -32.675 -36.2892 21.8903 4.10448e+12 -2.22061e+12 -4.21284e+12 -9.47761e+12 
293 1 32.675 -36.2892 21.8903 4.10448e+12 -2.22061e+12 -4.21284e+12 9.47761e+12 
294 1 36.2892 -32.675 21.8903 4.10448e+12 -4.21284e+12 -2.22061e+12 9.47761e+12 
12294 1 37.5408 -33.8019 21.8903 4.3299e+12 -3.92403e+12 -1.86485e+12 9.79618e+12 
276 1 -42.2897 -24.416 21.8903 4.10447e+12 -7.98146e+12 1.54821e+12 -8.25301e+12 
12276 1 -43.7483 -25.2581 21.8903 4.32989e+12 -7.81935e+12 2.03066e+12 -8.53041e+12 
12277 1 -40.8685 -29.6927 21.8903 4.32978e+12 -5.93727e+12 1.49927e+11 -9.36734e+12 
277 1 -39.5059 -28.7027 21.8903 4.10436e+12 -6.16058e+12 -2.71346e+11 -9.06269e+12 
295 1 39.5059 -28.7027 21.8903 4.10436e+12 -6.16058e+12 -2.71346e+11 9.06269e+12 
296 1 42.2897 -24.416 21.8903 4.10447e+12 -7.98146e+12 1.54821e+12 8.25301e+12 
12295 1 40.8685 -29.6927 21.8903 4.32978e+12 -5.93727e+12 1.49927e+11 9.36734e+12 
12296 1 43.7483 -25.2581 21.8903 4.32989e+12 -7.81935e+12 2.03066e+12 8.53041e+12 
12275 1 -46.1488 -20.5468 21.8903 4.32988e+12 -9.48516e+12 3.6966e+12 -7.32003e+12 
275 1 -44.6102 -19.8617 21.8903 4.10446e+12 -9.59311e+12 3.15997e+12 -7.08197e+12 
297 1 44.6102 -19.8617 21.8903 4.10446e+12 -9.59311e+12 3.15997e+12 7.08197e+12 
12297 1 46.1488 -20.5468 21.8903 4.32988e+12 -9.48516e+12 3.6966e+12 7.32003e+12 
274 1 -46.442 -15.0899 21.8903 4.10436e+12 -1.09252e+13 4.49317e+12 -5.60108e+12 
12274 1 -48.0438 -15.6104 21.8903 4.32979e+12 -1.08621e+13 5.07463e+12 -5.78938e+12 
298 1 46.442 -15.0899 21.8903 4.10436e+12 -1.09252e+13 4.49317e+12 5.60108e+12 
12298 1 48.0438 -15.6104 21.8903 4.32979e+12 -1.08621e+13 5.07463e+12 5.78938e+12 
12273 1 -49.4123 -10.5029 21.8903 4.32979e+12 -1.18917e+13 6.1042e+12 -4.00611e+12 
273 1 -47.7649 -10.1527 21.8903 4.10436e+12 -1.19213e+13 5.48925e+12 -3.87581e+12 
12299 1 49.4123 -10.5029 21.8903 4.32979e+12 -1.18917e+13 6.1042e+12 4.00611e+12 
299 1 47.7649 -10.1527 21.8903 4.10436e+12 -1.19213e+13 5.48925e+12 3.87581e+12 
272 1 -48.5645 -5.10434 21.8903 4.1043e+12 -1.25361e+13 6.1049e+12 -1.98101e+12 
12272 1 -50.2395 -5.28037 21.8903 4.32972e+12 -1.25272e+13 6.74051e+12 -2.04761e+12 
271 1 -48.832 -2.27374e-13 21.8903 4.10442e+12 -1.27457e+13 6.31312e+12 -27.2704 
12271 1 -50.5162 -2.27374e-13 21.8903 4.32982e+12 -1.27437e+13 6.95568e+12 -112.791 
300 1 48.5645 -5.10434 21.8903 4.1043e+12 -1.25361e+13 6.1049e+12 1.98101e+12 
12300 1 50.2395 -5.28037 21.8903 4.32972e+12 -1.25272e+13 6.74051e+12 2.04761e+12 
241 1 48.832 -2.27374e-13 21.8903 4.10442e+12 -1.27457e+13 6.31312e+12 82.8955 
12241 1 50.5162 -2.27374e-13 21.8903 4.32982e+12 -1.27437e+13 6.95568e+12 144.414 
12344 1 -10.5029 -49.4123 26.9419 4.32979e+12 6.1042e+12 -1.18917e+13 -4.00611e+12 
345 1 -5.10434 -48.5645 26.9419 4.1043e+12 6.1049e+12 -1.25361e+13 -1.98101e+12 
12345 1 -5.28037 -50.2395 26.9419 4.32972e+12 6.74051e+12 -1.25272e+13 -2.04761e+12 
346 1 -2.27374e-13 -48.832 26.9419 4.10442e+12 6.31312e+12 -1.27457e+13 -32.6679 
12346 1 -2.27374e-13 -50.5162 26.9419 4.32982e+12 6.95568e+12 -1.27437e+13 76.0405 
347 1 5.10434 -48.5645 26.9419 4.1043e+12 6.1049e+12 -1.25361e+13 1.98101e+12 
12347 1 5.28037 -50.2395 26.9419 4.32972e+12 6.74051e+12 -1.25272e+13 2.04761e+12 
12348 1 10.5029 -49.4123 26.9419 4.32979e+12 6.1042e+12 -1.18917e+13 4.00611e+12 
12341 1 -25.2581 -43.7483 26.9419 4.32989e+12 2.03066e+12 -7.81935e+12 -8.53041e+12 
12342 1 -20.5468 -46.1488 26.9419 4.32988e+12 3.6966e+12 -9.48516e+12 -7.32003e+12 
342 1 -19.8617 -44.6102 26.9419 4.10446e+12 3.15997e+12 -9.59311e+12 -7.08197e+12 
12343 1 -15.6104 -48.0438 26.9419 4.32979e+12 5.07463e+12 -1.08621e+13 -5.78938e+12 
343 1 -15.0899 -46.442 26.9419 4.10436e+12 4.49317e+12 -1.09252e+13 -5.60108e+12 
344 1 -10.1527 -47.7649 26.9419 4.10436e+12 5.48925e+12 -1.19213e+13 -3.87581e+12 
348 1 10.1527 -47.7649 26.9419 4.10436e+12 5.48925e+12 -1.19213e+13 3.87581e+12 
349 1 15.0899 -46.442 26.9419 4.10436e+12 4.49317e+12 -1.09252e+13 5.60108e+12 
350 1 19.8617 -44.6102 26.9419 4.10446e+12 3.15997e+12 -9.59311e+12 7.08197e+12 
12349 1 15.6104 -48.0438 26.9419 4.32979e+12 5.07463e+12 -1.08621e+13 5.78938e+12 
12350 1 20.5468 -46.1488 26.9419 4.32988e+12 3.6966e+12 -9.48516e+12 7.32003e+12 
12351 1 25.2581 -43.7483 26.9419 4.32989e+12 2.03066e+12 -7.81935e+12 8.53041e+12 
12339 1 -33.8019 -37.5408 26.9419 4.3299e+12 -1.86485e+12 -3.92403e+12 -9.79618e+12 
12340 1 -29.6927 -40.8685 26.9419 4.32978e+12 1.49927e+11 -5.93727e+12 -9.36734e+12 
340 1 -28.7027 -39.5059 26.9419 4.10436e+12 -2.71346e+11 -6.16058e+12 -9.06269e+12 
341 1 -24.416 -42.2897 26.9419 4.10447e+12 1.54821e+12 -7.98146e+12 -8.25301e+12 
351 1 24.416 -42.2897 26.9419 4.10447e+12 1.54821e+12 -7.98146e+12 8.25301e+12 
12352 1 29.6927 -40.8685 26.9419 4.32978e+12 1.49927e+11 -5.93727e+12 9.36734e+12 
352 1 28.7027 -39.5059 26.9419 4.10436e+12 -2.71346e+11 -6.16058e+12 9.06269e+12 
12353 1 33.8019 -37.5408 26.9419 4.3299e+12 -1.86485e+12 -3.92403e+12 9.79618e+12 
338 1 -36.2892 -32.675 26.9419 4.10448e+12 -4.21284e+12 -2.22061e+12 -9.47761e+12 
12338 1 -37.5408 -33.8019 26.9419 4.3299e+12 -3.92403e+12 -1.86485e+12 -9.79618e+12 
339 1 -32.675 -36.2892 26.9419 4.10448e+12 -2.22061e+12 -4.21284e+12 -9.47761e+12 
353 1 32.675 -36.2892 26.9419 4.10448e+12 -2.22061e+12 -4.21284e+12 9.47761e+12 
354 1 36.2892 -32.675 26.9419 4.10448e+12 -4.21284e+12 -2.22061e+12 9.47761e+12 
12354 1 37.5408 -33.8019 26.9419 4.3299e+12 -3.92403e+12 -1.86485e+12 9.79618e+12 
336 1 -42.2897 -24.416 26.9419 4.10447e+12 -7.98146e+12 1.54821e+12 -8.25301e+12 
12336 1 -43.7483 -25.2581 26.9419 4.32989e+12 -7.81935e+12 2.03066e+12 -8.53041e+12 
12337 1 -40.8685 -29.6927 26.9419 4.32978e+12 -5.93727e+12 1.49927e+11 -9.36734e+12 
337 1 -39.5059 -28.7027 26.9419 4.10436e+12 -6.16058e+12 -2.71346e+11 -9.06269e+12 
355 1 39.5059 -28.7027 26.9419 4.10436e+12 -6.16058e+12 -2.71346e+11 9.06269e+12 
356 1 42.2897 -24.416 26.9419 4.10447e+12 -7.98146e+12 1.54821e+12 8.25301e+12 
12355 1 40.8685 -29.6927 26.9419 4.32978e+12 -5.93727e+12 1.49927e+11 9.36734e+12 
12356 1 43.7483 -25.2581 26.9419 4.32989e+12 -7.81935e+12 2.03066e+12 8.53041e+12 
12335 1 -46.1488 -20.5468 26.9419 4.32988e+12 -9.48516e+12 3.6966e+12 -7.32003e+12 
335 1 -44.6102 -19.8617 26.9419 4.10446e+12 -9.59311e+12 3.15997e+12 -7.08197e+12 
357 1 44.6102 -19.8617 26.9419 4.10446e+12 -9.59311e+12 3.15997e+12 7.08197e+12 
12357 1 46.1488 -20.5468 26.9419 4.32988e+12 -9.48516e+12 3.6966e+12 7.32003e+12 
334 1 -46.442 -15.0899 26.9419 4.10436e+12 -1.09252e+13 4.49317e+12 -5.60108e+12 
12334 1 -48.0438 -15.6104 26.9419 4.32979e+12 -1.08621e+13 5.07463e+12 -5.78938e+12 
358 1 46.442 -15.0899 26.9419 4.10436e+12 -1.09252e+13 4.49317e+12 5.60108e+12 
12358 1 48.0438 -15.6104 26.9419 4.32979e+12 -1.08621e+13 5.07463e+12 5.78938e+12 
12333 1 -49.4123 -10.5029 26.9419 4.32979e+12 -1.18917e+13 6.1042e+12 -4.00611e+12 