ITEM: TIMESTEP
13000
ITEM: NUMBER OF ATOMS
24000
ITEM: BOX BOUNDS pp pp pp
-1.3466881062606399e+03 1.3466881062606399e+03
-1.3466881062606399e+03 1.3466881062606399e+03
-1.3466881062606399e+03 1.3466881062606399e+03
ITEM: ATOMS id type x y z c_pte c_csym[1] c_csym[2] c_csym[4] 
12044 1 -10.4998 -49.3978 1.6834 2.98048e+12 4.19977e+12 -1.20171e+13 -3.49273e+12 
45 1 -5.10274 -48.5494 1.6834 2.82142e+12 4.26788e+12 -1.25703e+13 -1.68991e+12 
12045 1 -5.2788 -50.2247 1.6834 2.9804e+12 4.74877e+12 -1.25653e+13 -1.73038e+12 
46 1 2.46775e-05 -48.8169 1.6834 2.82153e+12 4.43527e+12 -1.2739e+13 9.73241e+10 
12046 1 2.58607e-05 -50.5014 1.6834 2.98051e+12 4.91935e+12 -1.27372e+13 1.07205e+11 
47 1 5.10279 -48.5494 1.6834 2.82141e+12 4.2274e+12 -1.25298e+13 1.88029e+12 
12047 1 5.27885 -50.2247 1.6834 2.98041e+12 4.7042e+12 -1.25207e+13 1.94011e+12 
12048 1 10.4998 -49.3978 1.6834 2.98048e+12 4.11256e+12 -1.19299e+13 3.6886e+12 
12041 1 -25.2507 -43.7355 1.6834 2.98057e+12 5.97864e+11 -8.41642e+12 -7.59224e+12 
12042 1 -20.5407 -46.1353 1.6834 2.98057e+12 2.07788e+12 -9.89631e+12 -6.48924e+12 
42 1 -19.8556 -44.5965 1.6834 2.82157e+12 1.66621e+12 -9.97051e+12 -6.31661e+12 
12043 1 -15.6058 -48.0297 1.6834 2.98047e+12 3.29637e+12 -1.11137e+13 -5.10227e+12 
43 1 -15.0852 -46.4276 1.6834 2.82148e+12 2.85249e+12 -1.11557e+13 -4.9685e+12 
44 1 -10.1496 -47.7501 1.6834 2.82148e+12 3.73245e+12 -1.20357e+13 -3.40365e+12 
48 1 10.1496 -47.7501 1.6834 2.82148e+12 3.65328e+12 -1.19565e+13 3.58146e+12 
49 1 15.0853 -46.4276 1.6834 2.82148e+12 2.73808e+12 -1.10413e+13 5.12597e+12 
50 1 19.8556 -44.5964 1.6834 2.82158e+12 1.52157e+12 -9.82587e+12 6.44685e+12 
12049 1 15.6058 -48.0297 1.6834 2.98047e+12 3.17034e+12 -1.09876e+13 5.27574e+12 
12050 1 20.5408 -46.1353 1.6834 2.98056e+12 1.91854e+12 -9.73697e+12 6.6327e+12 
12051 1 25.2507 -43.7354 1.6834 2.98057e+12 4.12179e+11 -8.23073e+12 7.69945e+12 
12039 1 -33.792 -37.5298 1.6834 2.98059e+12 -2.87992e+12 -4.93881e+12 -8.76916e+12 
12040 1 -29.6839 -40.8565 1.6834 2.98047e+12 -1.07868e+12 -6.73854e+12 -8.36279e+12 
40 1 -28.6938 -39.4937 1.6834 2.82148e+12 -1.40555e+12 -6.89754e+12 -8.13647e+12 
41 1 -24.4084 -42.2767 1.6834 2.82159e+12 2.25778e+11 -8.53019e+12 -7.38832e+12 
51 1 24.4085 -42.2767 1.6834 2.82159e+12 5.72092e+10 -8.36162e+12 7.48564e+12 
12052 1 29.684 -40.8564 1.6834 2.98047e+12 -1.2826e+12 -6.53461e+12 8.42905e+12 
52 1 28.6939 -39.4937 1.6834 2.82148e+12 -1.59066e+12 -6.71243e+12 8.19661e+12 
12053 1 33.792 -37.5298 1.6834 2.98058e+12 -3.09317e+12 -4.72558e+12 8.79157e+12 
38 1 -36.278 -32.6649 1.6834 2.8216e+12 -4.95313e+12 -3.35147e+12 -8.55067e+12 
12038 1 -37.5298 -33.792 1.6834 2.98058e+12 -4.72558e+12 -3.09317e+12 -8.79157e+12 
39 1 -32.6649 -36.278 1.6834 2.8216e+12 -3.15789e+12 -5.14671e+12 -8.53033e+12 
53 1 32.6649 -36.278 1.6834 2.8216e+12 -3.35147e+12 -4.95313e+12 8.55067e+12 
54 1 36.278 -32.6649 1.6834 2.8216e+12 -5.14671e+12 -3.15789e+12 8.53033e+12 
12054 1 37.5298 -33.792 1.6834 2.98059e+12 -4.93881e+12 -2.87992e+12 8.76916e+12 
36 1 -42.2767 -24.4085 1.6834 2.82159e+12 -8.36162e+12 5.72092e+10 -7.48564e+12 
12036 1 -43.7354 -25.2507 1.6834 2.98057e+12 -8.23073e+12 4.12179e+11 -7.69945e+12 
12037 1 -40.8564 -29.684 1.6834 2.98047e+12 -6.53461e+12 -1.2826e+12 -8.42905e+12 
37 1 -39.4937 -28.6939 1.6834 2.82148e+12 -6.71243e+12 -1.59066e+12 -8.19661e+12 
55 1 39.4937 -28.6938 1.6834 2.82148e+12 -6.89754e+12 -1.40555e+12 8.13647e+12 
56 1 42.2767 -24.4084 1.6834 2.82159e+12 -8.53019e+12 2.25778e+11 7.38832e+12 
12055 1 40.8565 -29.6839 1.6834 2.98047e+12 -6.73854e+12 -1.07868e+12 8.36279e+12 
12056 1 43.7355 -25.2507 1.6834 2.98057e+12 -8.41642e+12 5.97864e+11 7.59224e+12 
12035 1 -46.1353 -20.5408 1.6834 2.98056e+12 -9.73697e+12 1.91854e+12 -6.6327e+12 
35 1 -44.5964 -19.8556 1.6834 2.82158e+12 -9.82587e+12 1.52157e+12 -6.44685e+12 
57 1 44.5965 -19.8556 1.6834 2.82157e+12 -9.97051e+12 1.66621e+12 6.31661e+12 
12057 1 46.1353 -20.5407 1.6834 2.98057e+12 -9.89631e+12 2.07788e+12 6.48924e+12 
34 1 -46.4276 -15.0853 1.6834 2.82148e+12 -1.10413e+13 2.73808e+12 -5.12597e+12 
12034 1 -48.0297 -15.6058 1.6834 2.98047e+12 -1.09876e+13 3.17034e+12 -5.27574e+12 
58 1 46.4276 -15.0852 1.6834 2.82148e+12 -1.11557e+13 2.85249e+12 4.9685e+12 
12058 1 48.0297 -15.6058 1.6834 2.98047e+12 -1.11137e+13 3.29637e+12 5.10227e+12 
12033 1 -49.3978 -10.4998 1.6834 2.98048e+12 -1.19299e+13 4.11256e+12 -3.6886e+12 
33 1 -47.7501 -10.1496 1.6834 2.82148e+12 -1.19565e+13 3.65328e+12 -3.58146e+12 
12059 1 49.3978 -10.4998 1.6834 2.98048e+12 -1.20171e+13 4.19977e+12 3.49273e+12 
59 1 47.7501 -10.1496 1.6834 2.82148e+12 -1.20357e+13 3.73245e+12 3.40365e+12 
32 1 -48.5494 -5.10279 1.6834 2.82141e+12 -1.25298e+13 4.2274e+12 -1.88029e+12 
12032 1 -50.2247 -5.27885 1.6834 2.98041e+12 -1.25207e+13 4.7042e+12 -1.94011e+12 
31 1 -48.8169 -2.46775e-05 1.6834 2.82153e+12 -1.2739e+13 4.43527e+12 -9.73241e+10 
12031 1 -50.5014 -2.58607e-05 1.6834 2.98051e+12 -1.27372e+13 4.91935e+12 -1.07205e+11 
60 1 48.5494 -5.10274 1.6834 2.82142e+12 -1.25703e+13 4.26788e+12 1.68991e+12 
12060 1 50.2247 -5.2788 1.6834 2.9804e+12 -1.25653e+13 4.74877e+12 1.73038e+12 
12104 1 -10.4998 -49.3978 6.73344 4.32392e+12 6.09873e+12 -1.18803e+13 -4.00236e+12 
12164 1 -10.4998 -49.3978 11.7835 4.32396e+12 6.09876e+12 -1.18803e+13 -4.00237e+12 
105 1 -5.10276 -48.5494 6.73344 4.09853e+12 6.09901e+12 -1.25246e+13 -1.97916e+12 
12105 1 -5.27882 -50.2247 6.73344 4.32385e+12 6.73444e+12 -1.25152e+13 -2.04569e+12 
165 1 -5.10276 -48.5494 11.7835 4.09857e+12 6.09904e+12 -1.25246e+13 -1.97916e+12 
12165 1 -5.27882 -50.2247 11.7835 4.32388e+12 6.73447e+12 -1.25152e+13 -2.0457e+12 
106 1 -2.27374e-13 -48.8169 6.73344 4.09865e+12 6.30704e+12 -1.27339e+13 2.37477e+06 
12106 1 -2.27374e-13 -50.5014 6.73344 4.32395e+12 6.94942e+12 -1.27316e+13 2.59442e+06 
166 1 -2.27374e-13 -48.8169 11.7835 4.09869e+12 6.30707e+12 -1.27339e+13 251.264 
12166 1 -2.27374e-13 -50.5014 11.7835 4.32398e+12 6.94945e+12 -1.27316e+13 -185.456 
107 1 5.10276 -48.5494 6.73344 4.09853e+12 6.09901e+12 -1.25246e+13 1.97916e+12 
12107 1 5.27882 -50.2247 6.73344 4.32385e+12 6.73444e+12 -1.25152e+13 2.0457e+12 
167 1 5.10276 -48.5494 11.7835 4.09857e+12 6.09904e+12 -1.25246e+13 1.97916e+12 
12167 1 5.27882 -50.2247 11.7835 4.32388e+12 6.73447e+12 -1.25152e+13 2.0457e+12 
12108 1 10.4998 -49.3978 6.73344 4.32392e+12 6.09873e+12 -1.18803e+13 4.00237e+12 
12168 1 10.4998 -49.3978 11.7835 4.32396e+12 6.09876e+12 -1.18803e+13 4.00237e+12 
12101 1 -25.2507 -43.7355 6.73344 4.32402e+12 2.029e+12 -7.8118e+12 -8.52244e+12 
12161 1 -25.2507 -43.7355 11.7835 4.32405e+12 2.02902e+12 -7.81179e+12 -8.52245e+12 
12102 1 -20.5408 -46.1353 6.73344 4.32401e+12 3.69338e+12 -9.47606e+12 -7.31318e+12 
102 1 -19.8556 -44.5964 6.73344 4.09869e+12 3.15685e+12 -9.58431e+12 -7.07534e+12 
12103 1 -15.6058 -48.0297 6.73344 4.32392e+12 5.07012e+12 -1.08517e+13 -5.78396e+12 
12162 1 -20.5408 -46.1353 11.7835 4.32404e+12 3.6934e+12 -9.47605e+12 -7.3132e+12 
162 1 -19.8556 -44.5964 11.7835 4.09872e+12 3.15687e+12 -9.5843e+12 -7.07535e+12 
12163 1 -15.6058 -48.0297 11.7835 4.32395e+12 5.07015e+12 -1.08517e+13 -5.78398e+12 
103 1 -15.0852 -46.4276 6.73344 4.09859e+12 4.4888e+12 -1.09152e+13 -5.59584e+12 
104 1 -10.1496 -47.7501 6.73344 4.09859e+12 5.48394e+12 -1.19104e+13 -3.87218e+12 
163 1 -15.0852 -46.4276 11.7835 4.09862e+12 4.48882e+12 -1.09151e+13 -5.59585e+12 
164 1 -10.1496 -47.7501 11.7835 4.09862e+12 5.48396e+12 -1.19104e+13 -3.87219e+12 
108 1 10.1496 -47.7501 6.73344 4.09859e+12 5.48394e+12 -1.19104e+13 3.87218e+12 
109 1 15.0852 -46.4276 6.73344 4.09859e+12 4.48879e+12 -1.09151e+13 5.59584e+12 
168 1 10.1496 -47.7501 11.7835 4.09862e+12 5.48396e+12 -1.19104e+13 3.87219e+12 
169 1 15.0852 -46.4276 11.7835 4.09862e+12 4.48882e+12 -1.09151e+13 5.59585e+12 
110 1 19.8556 -44.5964 6.73344 4.09869e+12 3.15684e+12 -9.5843e+12 7.07534e+12 
12109 1 15.6058 -48.0297 6.73344 4.32392e+12 5.07012e+12 -1.08517e+13 5.78397e+12 
12110 1 20.5408 -46.1353 6.73344 4.32401e+12 3.69338e+12 -9.47606e+12 7.31319e+12 
170 1 19.8556 -44.5964 11.7835 4.09872e+12 3.15687e+12 -9.5843e+12 7.07535e+12 
12169 1 15.6058 -48.0297 11.7835 4.32395e+12 5.07015e+12 -1.08517e+13 5.78398e+12 
12170 1 20.5408 -46.1353 11.7835 4.32404e+12 3.6934e+12 -9.47605e+12 7.3132e+12 
12111 1 25.2507 -43.7355 6.73344 4.32402e+12 2.02899e+12 -7.8118e+12 8.52244e+12 
12171 1 25.2507 -43.7355 11.7835 4.32405e+12 2.02902e+12 -7.81179e+12 8.52245e+12 
12099 1 -33.792 -37.5298 6.73344 4.32402e+12 -1.86287e+12 -3.92013e+12 -9.78702e+12 
12159 1 -33.792 -37.5298 11.7835 4.32406e+12 -1.86286e+12 -3.92011e+12 -9.78703e+12 
12100 1 -29.684 -40.8565 6.73344 4.32391e+12 1.50022e+11 -5.93149e+12 -9.35858e+12 
100 1 -28.6938 -39.4937 6.73344 4.09859e+12 -2.71262e+11 -6.15499e+12 -9.05421e+12 
12160 1 -29.684 -40.8565 11.7835 4.32394e+12 1.5004e+11 -5.93148e+12 -9.3586e+12 
160 1 -28.6938 -39.4937 11.7835 4.09863e+12 -2.71246e+11 -6.15497e+12 -9.05422e+12 
101 1 -24.4084 -42.2767 6.73344 4.0987e+12 1.54659e+12 -7.97416e+12 -8.24528e+12 
161 1 -24.4084 -42.2767 11.7835 4.09874e+12 1.54661e+12 -7.97415e+12 -8.2453e+12 
111 1 24.4084 -42.2767 6.73344 4.0987e+12 1.54659e+12 -7.97416e+12 8.24529e+12 
171 1 24.4084 -42.2767 11.7835 4.09874e+12 1.54661e+12 -7.97415e+12 8.2453e+12 
12112 1 29.684 -40.8565 6.73344 4.32391e+12 1.50017e+11 -5.93149e+12 9.35859e+12 
112 1 28.6938 -39.4937 6.73344 4.09859e+12 -2.71267e+11 -6.15498e+12 9.05421e+12 
12172 1 29.684 -40.8565 11.7835 4.32394e+12 1.5004e+11 -5.93148e+12 9.3586e+12 
172 1 28.6938 -39.4937 11.7835 4.09863e+12 -2.71246e+11 -6.15497e+12 9.05422e+12 
12113 1 33.792 -37.5298 6.73344 4.32402e+12 -1.86288e+12 -3.92013e+12 9.78702e+12 
12173 1 33.792 -37.5298 11.7835 4.32406e+12 -1.86286e+12 -3.92011e+12 9.78703e+12 
98 1 -36.278 -32.6649 6.73344 4.09871e+12 -4.20906e+12 -2.2187e+12 -9.46874e+12 
12098 1 -37.5298 -33.792 6.73344 4.32402e+12 -3.92013e+12 -1.86288e+12 -9.78702e+12 
158 1 -36.278 -32.6649 11.7835 4.09875e+12 -4.20905e+12 -2.21868e+12 -9.46875e+12 
12158 1 -37.5298 -33.792 11.7835 4.32406e+12 -3.92011e+12 -1.86286e+12 -9.78703e+12 
99 1 -32.6649 -36.278 6.73344 4.09871e+12 -2.2187e+12 -4.20907e+12 -9.46874e+12 
159 1 -32.6649 -36.278 11.7835 4.09875e+12 -2.21868e+12 -4.20905e+12 -9.46875e+12 
113 1 32.6649 -36.278 6.73344 4.09871e+12 -2.2187e+12 -4.20906e+12 9.46874e+12 
173 1 32.6649 -36.278 11.7835 4.09875e+12 -2.21868e+12 -4.20905e+12 9.46875e+12 
114 1 36.278 -32.6649 6.73344 4.09871e+12 -4.20907e+12 -2.2187e+12 9.46874e+12 
12114 1 37.5298 -33.792 6.73344 4.32402e+12 -3.92013e+12 -1.86287e+12 9.78702e+12 
174 1 36.278 -32.6649 11.7835 4.09875e+12 -4.20905e+12 -2.21868e+12 9.46875e+12 
12174 1 37.5298 -33.792 11.7835 4.32406e+12 -3.92011e+12 -1.86286e+12 9.78703e+12 
96 1 -42.2767 -24.4084 6.73344 4.0987e+12 -7.97416e+12 1.54659e+12 -8.24529e+12 
12096 1 -43.7355 -25.2507 6.73344 4.32402e+12 -7.8118e+12 2.02899e+12 -8.52244e+12 
12097 1 -40.8565 -29.684 6.73344 4.32391e+12 -5.93149e+12 1.50017e+11 -9.35859e+12 
97 1 -39.4937 -28.6938 6.73344 4.09859e+12 -6.15498e+12 -2.71267e+11 -9.05421e+12 
156 1 -42.2767 -24.4084 11.7835 4.09874e+12 -7.97415e+12 1.54661e+12 -8.2453e+12 
12156 1 -43.7355 -25.2507 11.7835 4.32405e+12 -7.81179e+12 2.02902e+12 -8.52245e+12 
12157 1 -40.8565 -29.684 11.7835 4.32394e+12 -5.93148e+12 1.5004e+11 -9.3586e+12 
157 1 -39.4937 -28.6938 11.7835 4.09863e+12 -6.15497e+12 -2.71246e+11 -9.05422e+12 
115 1 39.4937 -28.6938 6.73344 4.09859e+12 -6.15499e+12 -2.71262e+11 9.05421e+12 
116 1 42.2767 -24.4084 6.73344 4.0987e+12 -7.97416e+12 1.54659e+12 8.24528e+12 
12115 1 40.8565 -29.684 6.73344 4.32391e+12 -5.93149e+12 1.50022e+11 9.35858e+12 
12116 1 43.7355 -25.2507 6.73344 4.32402e+12 -7.8118e+12 2.029e+12 8.52244e+12 
175 1 39.4937 -28.6938 11.7835 4.09863e+12 -6.15497e+12 -2.71246e+11 9.05422e+12 
176 1 42.2767 -24.4084 11.7835 4.09874e+12 -7.97415e+12 1.54661e+12 8.2453e+12 
12175 1 40.8565 -29.684 11.7835 4.32394e+12 -5.93148e+12 1.5004e+11 9.3586e+12 
12176 1 43.7355 -25.2507 11.7835 4.32405e+12 -7.81179e+12 2.02902e+12 8.52245e+12 
12095 1 -46.1353 -20.5408 6.73344 4.32401e+12 -9.47606e+12 3.69338e+12 -7.31319e+12 
12155 1 -46.1353 -20.5408 11.7835 4.32404e+12 -9.47605e+12 3.6934e+12 -7.3132e+12 
95 1 -44.5964 -19.8556 6.73344 4.09869e+12 -9.5843e+12 3.15684e+12 -7.07534e+12 
155 1 -44.5964 -19.8556 11.7835 4.09872e+12 -9.5843e+12 3.15687e+12 -7.07535e+12 
117 1 44.5964 -19.8556 6.73344 4.09869e+12 -9.58431e+12 3.15685e+12 7.07534e+12 
177 1 44.5964 -19.8556 11.7835 4.09872e+12 -9.5843e+12 3.15687e+12 7.07535e+12 
12117 1 46.1353 -20.5408 6.73344 4.32401e+12 -9.47606e+12 3.69338e+12 7.31318e+12 
12177 1 46.1353 -20.5408 11.7835 4.32404e+12 -9.47605e+12 3.6934e+12 7.3132e+12 
94 1 -46.4276 -15.0852 6.73344 4.09859e+12 -1.09151e+13 4.48879e+12 -5.59584e+12 
12094 1 -48.0297 -15.6058 6.73344 4.32392e+12 -1.08517e+13 5.07012e+12 -5.78397e+12 
154 1 -46.4276 -15.0852 11.7835 4.09862e+12 -1.09151e+13 4.48882e+12 -5.59585e+12 
12154 1 -48.0297 -15.6058 11.7835 4.32395e+12 -1.08517e+13 5.07015e+12 -5.78398e+12 
118 1 46.4276 -15.0852 6.73344 4.09859e+12 -1.09152e+13 4.4888e+12 5.59584e+12 
12118 1 48.0297 -15.6058 6.73344 4.32392e+12 -1.08517e+13 5.07012e+12 5.78396e+12 
178 1 46.4276 -15.0852 11.7835 4.09862e+12 -1.09151e+13 4.48882e+12 5.59585e+12 
12178 1 48.0297 -15.6058 11.7835 4.32395e+12 -1.08517e+13 5.07015e+12 5.78398e+12 
12093 1 -49.3978 -10.4998 6.73344 4.32392e+12 -1.18803e+13 6.09873e+12 -4.00237e+12 
93 1 -47.7501 -10.1496 6.73344 4.09859e+12 -1.19104e+13 5.48394e+12 -3.87218e+12 
12153 1 -49.3978 -10.4998 11.7835 4.32396e+12 -1.18803e+13 6.09876e+12 -4.00237e+12 
153 1 -47.7501 -10.1496 11.7835 4.09862e+12 -1.19104e+13 5.48396e+12 -3.87219e+12 
12119 1 49.3978 -10.4998 6.73344 4.32392e+12 -1.18803e+13 6.09873e+12 4.00236e+12 
119 1 47.7501 -10.1496 6.73344 4.09859e+12 -1.19104e+13 5.48394e+12 3.87218e+12 
12179 1 49.3978 -10.4998 11.7835 4.32396e+12 -1.18803e+13 6.09876e+12 4.00237e+12 
179 1 47.7501 -10.1496 11.7835 4.09862e+12 -1.19104e+13 5.48396e+12 3.87219e+12 
92 1 -48.5494 -5.10276 6.73344 4.09853e+12 -1.25246e+13 6.09901e+12 -1.97916e+12 
12092 1 -50.2247 -5.27882 6.73344 4.32385e+12 -1.25152e+13 6.73444e+12 -2.0457e+12 
152 1 -48.5494 -5.10276 11.7835 4.09857e+12 -1.25246e+13 6.09904e+12 -1.97916e+12 
12152 1 -50.2247 -5.27882 11.7835 4.32388e+12 -1.25152e+13 6.73447e+12 -2.0457e+12 
91 1 -48.8169 -2.27374e-13 6.73344 4.09865e+12 -1.27339e+13 6.30704e+12 -2.37512e+06 
151 1 -48.8169 -2.27374e-13 11.7835 4.09869e+12 -1.27339e+13 6.30707e+12 194.377 
12151 1 -50.5014 -2.27374e-13 11.7835 4.32398e+12 -1.27316e+13 6.94945e+12 -15.6112 
12091 1 -50.5014 -2.27374e-13 6.73344 4.32395e+12 -1.27316e+13 6.94942e+12 -2.59475e+06 
120 1 48.5494 -5.10276 6.73344 4.09853e+12 -1.25246e+13 6.09901e+12 1.97916e+12 
12120 1 50.2247 -5.27882 6.73344 4.32385e+12 -1.25152e+13 6.73444e+12 2.04569e+12 
180 1 48.5494 -5.10276 11.7835 4.09857e+12 -1.25246e+13 6.09904e+12 1.97916e+12 
12180 1 50.2247 -5.27882 11.7835 4.32388e+12 -1.25152e+13 6.73447e+12 2.0457e+12 
12061 1 50.5014 -2.27374e-13 6.73344 4.32395e+12 -1.27316e+13 6.94942e+12 -2.59442e+06 
121 1 48.8169 -2.27374e-13 11.7835 4.09869e+12 -1.27339e+13 6.30707e+12 -258.044 
12121 1 50.5014 -2.27374e-13 11.7835 4.32398e+12 -1.27316e+13 6.94945e+12 178.201 
61 1 48.8169 -2.27374e-13 6.73344 4.09865e+12 -1.27339e+13 6.30704e+12 -2.3749e+06 
12224 1 -10.4998 -49.3978 16.8336 4.32396e+12 6.09876e+12 -1.18803e+13 -4.00237e+12 
225 1 -5.10276 -48.5494 16.8336 4.09857e+12 6.09904e+12 -1.25246e+13 -1.97916e+12 
12225 1 -5.27882 -50.2247 16.8336 4.32388e+12 6.73447e+12 -1.25152e+13 -2.0457e+12 
226 1 -2.27374e-13 -48.8169 16.8336 4.09869e+12 6.30707e+12 -1.27339e+13 253.996 
12226 1 -2.27374e-13 -50.5014 16.8336 4.32398e+12 6.94945e+12 -1.27316e+13 81.9574 
227 1 5.10276 -48.5494 16.8336 4.09857e+12 6.09904e+12 -1.25246e+13 1.97916e+12 
12227 1 5.27882 -50.2247 16.8336 4.32388e+12 6.73447e+12 -1.25152e+13 2.0457e+12 
12228 1 10.4998 -49.3978 16.8336 4.32396e+12 6.09876e+12 -1.18803e+13 4.00237e+12 
12221 1 -25.2507 -43.7355 16.8336 4.32405e+12 2.02902e+12 -7.81179e+12 -8.52245e+12 
12222 1 -20.5408 -46.1353 16.8336 4.32404e+12 3.6934e+12 -9.47605e+12 -7.3132e+12 
222 1 -19.8556 -44.5964 16.8336 4.09872e+12 3.15687e+12 -9.5843e+12 -7.07535e+12 
12223 1 -15.6058 -48.0297 16.8336 4.32395e+12 5.07015e+12 -1.08517e+13 -5.78398e+12 
223 1 -15.0852 -46.4276 16.8336 4.09862e+12 4.48882e+12 -1.09151e+13 -5.59585e+12 
224 1 -10.1496 -47.7501 16.8336 4.09862e+12 5.48396e+12 -1.19104e+13 -3.87219e+12 
228 1 10.1496 -47.7501 16.8336 4.09862e+12 5.48396e+12 -1.19104e+13 3.87219e+12 
229 1 15.0852 -46.4276 16.8336 4.09862e+12 4.48882e+12 -1.09151e+13 5.59585e+12 
230 1 19.8556 -44.5964 16.8336 4.09872e+12 3.15687e+12 -9.5843e+12 7.07535e+12 
12229 1 15.6058 -48.0297 16.8336 4.32395e+12 5.07015e+12 -1.08517e+13 5.78398e+12 
12230 1 20.5408 -46.1353 16.8336 4.32404e+12 3.6934e+12 -9.47605e+12 7.3132e+12 
12231 1 25.2507 -43.7355 16.8336 4.32405e+12 2.02902e+12 -7.81179e+12 8.52245e+12 
12219 1 -33.792 -37.5298 16.8336 4.32406e+12 -1.86286e+12 -3.92011e+12 -9.78703e+12 
12220 1 -29.684 -40.8565 16.8336 4.32394e+12 1.5004e+11 -5.93148e+12 -9.3586e+12 
220 1 -28.6938 -39.4937 16.8336 4.09863e+12 -2.71246e+11 -6.15497e+12 -9.05422e+12 
221 1 -24.4084 -42.2767 16.8336 4.09874e+12 1.54661e+12 -7.97415e+12 -8.2453e+12 
231 1 24.4084 -42.2767 16.8336 4.09874e+12 1.54661e+12 -7.97415e+12 8.2453e+12 
12232 1 29.684 -40.8565 16.8336 4.32394e+12 1.5004e+11 -5.93148e+12 9.3586e+12 
232 1 28.6938 -39.4937 16.8336 4.09863e+12 -2.71246e+11 -6.15497e+12 9.05422e+12 
12233 1 33.792 -37.5298 16.8336 4.32406e+12 -1.86286e+12 -3.92011e+12 9.78703e+12 
218 1 -36.278 -32.6649 16.8336 4.09875e+12 -4.20905e+12 -2.21868e+12 -9.46875e+12 
12218 1 -37.5298 -33.792 16.8336 4.32406e+12 -3.92011e+12 -1.86286e+12 -9.78703e+12 
219 1 -32.6649 -36.278 16.8336 4.09875e+12 -2.21868e+12 -4.20905e+12 -9.46875e+12 
233 1 32.6649 -36.278 16.8336 4.09875e+12 -2.21868e+12 -4.20905e+12 9.46875e+12 
234 1 36.278 -32.6649 16.8336 4.09875e+12 -4.20905e+12 -2.21868e+12 9.46875e+12 
12234 1 37.5298 -33.792 16.8336 4.32406e+12 -3.92011e+12 -1.86286e+12 9.78703e+12 
216 1 -42.2767 -24.4084 16.8336 4.09874e+12 -7.97415e+12 1.54661e+12 -8.2453e+12 
12216 1 -43.7355 -25.2507 16.8336 4.32405e+12 -7.81179e+12 2.02902e+12 -8.52245e+12 
12217 1 -40.8565 -29.684 16.8336 4.32394e+12 -5.93148e+12 1.5004e+11 -9.3586e+12 
217 1 -39.4937 -28.6938 16.8336 4.09863e+12 -6.15497e+12 -2.71246e+11 -9.05422e+12 
235 1 39.4937 -28.6938 16.8336 4.09863e+12 -6.15497e+12 -2.71246e+11 9.05422e+12 
236 1 42.2767 -24.4084 16.8336 4.09874e+12 -7.97415e+12 1.54661e+12 8.2453e+12 
12235 1 40.8565 -29.684 16.8336 4.32394e+12 -5.93148e+12 1.5004e+11 9.3586e+12 
12236 1 43.7355 -25.2507 16.8336 4.32405e+12 -7.81179e+12 2.02902e+12 8.52245e+12 
12215 1 -46.1353 -20.5408 16.8336 4.32404e+12 -9.47605e+12 3.6934e+12 -7.3132e+12 
215 1 -44.5964 -19.8556 16.8336 4.09872e+12 -9.5843e+12 3.15687e+12 -7.07535e+12 
237 1 44.5964 -19.8556 16.8336 4.09872e+12 -9.5843e+12 3.15687e+12 7.07535e+12 
12237 1 46.1353 -20.5408 16.8336 4.32404e+12 -9.47605e+12 3.6934e+12 7.3132e+12 
214 1 -46.4276 -15.0852 16.8336 4.09862e+12 -1.09151e+13 4.48882e+12 -5.59585e+12 
12214 1 -48.0297 -15.6058 16.8336 4.32395e+12 -1.08517e+13 5.07015e+12 -5.78398e+12 
238 1 46.4276 -15.0852 16.8336 4.09862e+12 -1.09151e+13 4.48882e+12 5.59585e+12 
12238 1 48.0297 -15.6058 16.8336 4.32395e+12 -1.08517e+13 5.07015e+12 5.78398e+12 
12213 1 -49.3978 -10.4998 16.8336 4.32396e+12 -1.18803e+13 6.09876e+12 -4.00237e+12 
213 1 -47.7501 -10.1496 16.8336 4.09862e+12 -1.19104e+13 5.48396e+12 -3.87219e+12 
12239 1 49.3978 -10.4998 16.8336 4.32396e+12 -1.18803e+13 6.09876e+12 4.00237e+12 
239 1 47.7501 -10.1496 16.8336 4.09862e+12 -1.19104e+13 5.48396e+12 3.87219e+12 
212 1 -48.5494 -5.10276 16.8336 4.09857e+12 -1.25246e+13 6.09904e+12 -1.97916e+12 
12212 1 -50.2247 -5.27882 16.8336 4.32388e+12 -1.25152e+13 6.73447e+12 -2.0457e+12 
211 1 -48.8169 -2.27374e-13 16.8336 4.09869e+12 -1.27339e+13 6.30707e+12 -27.9849 
12211 1 -50.5014 -2.27374e-13 16.8336 4.32398e+12 -1.27316e+13 6.94945e+12 -208.898 
240 1 48.5494 -5.10276 16.8336 4.09857e+12 -1.25246e+13 6.09904e+12 1.97916e+12 
12240 1 50.2247 -5.27882 16.8336 4.32388e+12 -1.25152e+13 6.73447e+12 2.0457e+12 
181 1 48.8169 -2.27374e-13 16.8336 4.09869e+12 -1.27339e+13 6.30707e+12 -208.441 
12181 1 50.5014 -2.27374e-13 16.8336 4.32398e+12 -1.27316e+13 6.94945e+12 -109.952 
12284 1 -10.4998 -49.3978 21.8837 4.32396e+12 6.09876e+12 -1.18803e+13 -4.00237e+12 
285 1 -5.10276 -48.5494 21.8837 4.09857e+12 6.09904e+12 -1.25246e+13 -1.97916e+12 
12285 1 -5.27882 -50.2247 21.8837 4.32388e+12 6.73447e+12 -1.25152e+13 -2.0457e+12 
286 1 -2.27374e-13 -48.8169 21.8837 4.09869e+12 6.30707e+12 -1.27339e+13 230.069 
12286 1 -2.27374e-13 -50.5014 21.8837 4.32398e+12 6.94945e+12 -1.27316e+13 -233.363 
287 1 5.10276 -48.5494 21.8837 4.09857e+12 6.09904e+12 -1.25246e+13 1.97916e+12 
12287 1 5.27882 -50.2247 21.8837 4.32388e+12 6.73447e+12 -1.25152e+13 2.0457e+12 
12288 1 10.4998 -49.3978 21.8837 4.32396e+12 6.09876e+12 -1.18803e+13 4.00237e+12 
12281 1 -25.2507 -43.7355 21.8837 4.32405e+12 2.02902e+12 -7.81179e+12 -8.52245e+12 
12282 1 -20.5408 -46.1353 21.8837 4.32404e+12 3.6934e+12 -9.47605e+12 -7.3132e+12 
282 1 -19.8556 -44.5964 21.8837 4.09872e+12 3.15687e+12 -9.5843e+12 -7.07535e+12 
12283 1 -15.6058 -48.0297 21.8837 4.32395e+12 5.07015e+12 -1.08517e+13 -5.78398e+12 
283 1 -15.0852 -46.4276 21.8837 4.09862e+12 4.48882e+12 -1.09151e+13 -5.59585e+12 
284 1 -10.1496 -47.7501 21.8837 4.09862e+12 5.48396e+12 -1.19104e+13 -3.87219e+12 
288 1 10.1496 -47.7501 21.8837 4.09862e+12 5.48396e+12 -1.19104e+13 3.87219e+12 
289 1 15.0852 -46.4276 21.8837 4.09862e+12 4.48882e+12 -1.09151e+13 5.59585e+12 
290 1 19.8556 -44.5964 21.8837 4.09872e+12 3.15687e+12 -9.5843e+12 7.07535e+12 
12289 1 15.6058 -48.0297 21.8837 4.32395e+12 5.07015e+12 -1.08517e+13 5.78398e+12 
12290 1 20.5408 -46.1353 21.8837 4.32404e+12 3.6934e+12 -9.47605e+12 7.3132e+12 
12291 1 25.2507 -43.7355 21.8837 4.32405e+12 2.02902e+12 -7.81179e+12 8.52245e+12 
12279 1 -33.792 -37.5298 21.8837 4.32406e+12 -1.86286e+12 -3.92011e+12 -9.78703e+12 
12280 1 -29.684 -40.8565 21.8837 4.32394e+12 1.5004e+11 -5.93148e+12 -9.3586e+12 
280 1 -28.6938 -39.4937 21.8837 4.09863e+12 -2.71246e+11 -6.15497e+12 -9.05422e+12 
281 1 -24.4084 -42.2767 21.8837 4.09874e+12 1.54661e+12 -7.97415e+12 -8.2453e+12 
291 1 24.4084 -42.2767 21.8837 4.09874e+12 1.54661e+12 -7.97415e+12 8.2453e+12 
12292 1 29.684 -40.8565 21.8837 4.32394e+12 1.5004e+11 -5.93148e+12 9.3586e+12 
292 1 28.6938 -39.4937 21.8837 4.09863e+12 -2.71246e+11 -6.15497e+12 9.05422e+12 
12293 1 33.792 -37.5298 21.8837 4.32406e+12 -1.86286e+12 -3.92011e+12 9.78703e+12 
278 1 -36.278 -32.6649 21.8837 4.09875e+12 -4.20905e+12 -2.21868e+12 -9.46875e+12 
12278 1 -37.5298 -33.792 21.8837 4.32406e+12 -3.92011e+12 -1.86286e+12 -9.78703e+12 
279 1 -32.6649 -36.278 21.8837 4.09875e+12 -2.21868e+12 -4.20905e+12 -9.46875e+12 
293 1 32.6649 -36.278 21.8837 4.09875e+12 -2.21868e+12 -4.20905e+12 9.46875e+12 
294 1 36.278 -32.6649 21.8837 4.09875e+12 -4.20905e+12 -2.21868e+12 9.46875e+12 
12294 1 37.5298 -33.792 21.8837 4.32406e+12 -3.92011e+12 -1.86286e+12 9.78703e+12 
276 1 -42.2767 -24.4084 21.8837 4.09874e+12 -7.97415e+12 1.54661e+12 -8.2453e+12 
12276 1 -43.7355 -25.2507 21.8837 4.32405e+12 -7.81179e+12 2.02902e+12 -8.52245e+12 
12277 1 -40.8565 -29.684 21.8837 4.32394e+12 -5.93148e+12 1.5004e+11 -9.3586e+12 
277 1 -39.4937 -28.6938 21.8837 4.09863e+12 -6.15497e+12 -2.71246e+11 -9.05422e+12 
295 1 39.4937 -28.6938 21.8837 4.09863e+12 -6.15497e+12 -2.71246e+11 9.05422e+12 
296 1 42.2767 -24.4084 21.8837 4.09874e+12 -7.97415e+12 1.54661e+12 8.2453e+12 
12295 1 40.8565 -29.684 21.8837 4.32394e+12 -5.93148e+12 1.5004e+11 9.3586e+12 
12296 1 43.7355 -25.2507 21.8837 4.32405e+12 -7.81179e+12 2.02902e+12 8.52245e+12 
12275 1 -46.1353 -20.5408 21.8837 4.32404e+12 -9.47605e+12 3.6934e+12 -7.3132e+12 
275 1 -44.5964 -19.8556 21.8837 4.09872e+12 -9.5843e+12 3.15687e+12 -7.07535e+12 
297 1 44.5964 -19.8556 21.8837 4.09872e+12 -9.5843e+12 3.15687e+12 7.07535e+12 
12297 1 46.1353 -20.5408 21.8837 4.32404e+12 -9.47605e+12 3.6934e+12 7.3132e+12 
274 1 -46.4276 -15.0852 21.8837 4.09862e+12 -1.09151e+13 4.48882e+12 -5.59585e+12 
12274 1 -48.0297 -15.6058 21.8837 4.32395e+12 -1.08517e+13 5.07015e+12 -5.78398e+12 
298 1 46.4276 -15.0852 21.8837 4.09862e+12 -1.09151e+13 4.48882e+12 5.59585e+12 
12298 1 48.0297 -15.6058 21.8837 4.32395e+12 -1.08517e+13 5.07015e+12 5.78398e+12 
12273 1 -49.3978 -10.4998 21.8837 4.32396e+12 -1.18803e+13 6.09876e+12 -4.00237e+12 
273 1 -47.7501 -10.1496 21.8837 4.09862e+12 -1.19104e+13 5.48396e+12 -3.87219e+12 
12299 1 49.3978 -10.4998 21.8837 4.32396e+12 -1.18803e+13 6.09876e+12 4.00237e+12 
299 1 47.7501 -10.1496 21.8837 4.09862e+12 -1.19104e+13 5.48396e+12 3.87219e+12 
272 1 -48.5494 -5.10276 21.8837 4.09857e+12 -1.25246e+13 6.09904e+12 -1.97916e+12 
12272 1 -50.2247 -5.27882 21.8837 4.32388e+12 -1.25152e+13 6.73447e+12 -2.0457e+12 
271 1 -48.8169 -2.27374e-13 21.8837 4.09869e+12 -1.27339e+13 6.30707e+12 -48.3115 
12271 1 -50.5014 -2.27374e-13 21.8837 4.32398e+12 -1.27316e+13 6.94945e+12 -190.085 
300 1 48.5494 -5.10276 21.8837 4.09857e+12 -1.25246e+13 6.09904e+12 1.97916e+12 
12300 1 50.2247 -5.27882 21.8837 4.32388e+12 -1.25152e+13 6.73447e+12 2.0457e+12 
241 1 48.8169 -2.27374e-13 21.8837 4.09869e+12 -1.27339e+13 6.30707e+12 140.455 
12241 1 50.5014 -2.27374e-13 21.8837 4.32398e+12 -1.27316e+13 6.94945e+12 247.224 
12344 1 -10.4998 -49.3978 26.9338 4.32396e+12 6.09876e+12 -1.18803e+13 -4.00237e+12 
345 1 -5.10276 -48.5494 26.9338 4.09857e+12 6.09904e+12 -1.25246e+13 -1.97916e+12 
12345 1 -5.27882 -50.2247 26.9338 4.32388e+12 6.73447e+12 -1.25152e+13 -2.0457e+12 
346 1 -2.27374e-13 -48.8169 26.9338 4.09869e+12 6.30707e+12 -1.27339e+13 -57.5565 
12346 1 -2.27374e-13 -50.5014 26.9338 4.32398e+12 6.94945e+12 -1.27316e+13 140.727 
347 1 5.10276 -48.5494 26.9338 4.09857e+12 6.09904e+12 -1.25246e+13 1.97916e+12 
12347 1 5.27882 -50.2247 26.9338 4.32388e+12 6.73447e+12 -1.25152e+13 2.0457e+12 
12348 1 10.4998 -49.3978 26.9338 4.32396e+12 6.09876e+12 -1.18803e+13 4.00237e+12 
12341 1 -25.2507 -43.7355 26.9338 4.32405e+12 2.02902e+12 -7.81179e+12 -8.52245e+12 
12342 1 -20.5408 -46.1353 26.9338 4.32404e+12 3.6934e+12 -9.47605e+12 -7.3132e+12 
342 1 -19.8556 -44.5964 26.9338 4.09872e+12 3.15687e+12 -9.5843e+12 -7.07535e+12 
12343 1 -15.6058 -48.0297 26.9338 4.32395e+12 5.07015e+12 -1.08517e+13 -5.78398e+12 
343 1 -15.0852 -46.4276 26.9338 4.09862e+12 4.48882e+12 -1.09151e+13 -5.59585e+12 
344 1 -10.1496 -47.7501 26.9338 4.09862e+12 5.48396e+12 -1.19104e+13 -3.87219e+12 
348 1 10.1496 -47.7501 26.9338 4.09862e+12 5.48396e+12 -1.19104e+13 3.87219e+12 
349 1 15.0852 -46.4276 26.9338 4.09862e+12 4.48882e+12 -1.09151e+13 5.59585e+12 
350 1 19.8556 -44.5964 26.9338 4.09872e+12 3.15687e+12 -9.5843e+12 7.07535e+12 
12349 1 15.6058 -48.0297 26.9338 4.32395e+12 5.07015e+12 -1.08517e+13 5.78398e+12 
12350 1 20.5408 -46.1353 26.9338 4.32404e+12 3.6934e+12 -9.47605e+12 7.3132e+12 
12351 1 25.2507 -43.7355 26.9338 4.32405e+12 2.02902e+12 -7.81179e+12 8.52245e+12 
12339 1 -33.792 -37.5298 26.9338 4.32406e+12 -1.86286e+12 -3.92011e+12 -9.78703e+12 
12340 1 -29.684 -40.8565 26.9338 4.32394e+12 1.5004e+11 -5.93148e+12 -9.3586e+12 
340 1 -28.6938 -39.4937 26.9338 4.09863e+12 -2.71246e+11 -6.15497e+12 -9.05422e+12 
341 1 -24.4084 -42.2767 26.9338 4.09874e+12 1.54661e+12 -7.97415e+12 -8.2453e+12 
351 1 24.4084 -42.2767 26.9338 4.09874e+12 1.54661e+12 -7.97415e+12 8.2453e+12 
12352 1 29.684 -40.8565 26.9338 4.32394e+12 1.5004e+11 -5.93148e+12 9.3586e+12 
352 1 28.6938 -39.4937 26.9338 4.09863e+12 -2.71246e+11 -6.15497e+12 9.05422e+12 
12353 1 33.792 -37.5298 26.9338 4.32406e+12 -1.86286e+12 -3.92011e+12 9.78703e+12 
338 1 -36.278 -32.6649 26.9338 4.09875e+12 -4.20905e+12 -2.21868e+12 -9.46875e+12 
12338 1 -37.5298 -33.792 26.9338 4.32406e+12 -3.92011e+12 -1.86286e+12 -9.78703e+12 
339 1 -32.6649 -36.278 26.9338 4.09875e+12 -2.21868e+12 -4.20905e+12 -9.46875e+12 
353 1 32.6649 -36.278 26.9338 4.09875e+12 -2.21868e+12 -4.20905e+12 9.46875e+12 
354 1 36.278 -32.6649 26.9338 4.09875e+12 -4.20905e+12 -2.21868e+12 9.46875e+12 
12354 1 37.5298 -33.792 26.9338 4.32406e+12 -3.92011e+12 -1.86286e+12 9.78703e+12 
336 1 -42.2767 -24.4084 26.9338 4.09874e+12 -7.97415e+12 1.54661e+12 -8.2453e+12 
12336 1 -43.7355 -25.2507 26.9338 4.32405e+12 -7.81179e+12 2.02902e+12 -8.52245e+12 
12337 1 -40.8565 -29.684 26.9338 4.32394e+12 -5.93148e+12 1.5004e+11 -9.3586e+12 
337 1 -39.4937 -28.6938 26.9338 4.09863e+12 -6.15497e+12 -2.71246e+11 -9.05422e+12 
355 1 39.4937 -28.6938 26.9338 4.09863e+12 -6.15497e+12 -2.71246e+11 9.05422e+12 
356 1 42.2767 -24.4084 26.9338 4.09874e+12 -7.97415e+12 1.54661e+12 8.2453e+12 
12355 1 40.8565 -29.684 26.9338 4.32394e+12 -5.93148e+12 1.5004e+11 9.3586e+12 
12356 1 43.7355 -25.2507 26.9338 4.32405e+12 -7.81179e+12 2.02902e+12 8.52245e+12 
12335 1 -46.1353 -20.5408 26.9338 4.32404e+12 -9.47605e+12 3.6934e+12 -7.3132e+12 
335 1 -44.5964 -19.8556 26.9338 4.09872e+12 -9.5843e+12 3.15687e+12 -7.07535e+12 
357 1 44.5964 -19.8556 26.9338 4.09872e+12 -9.5843e+12 3.15687e+12 7.07535e+12 
12357 1 46.1353 -20.5408 26.9338 4.32404e+12 -9.47605e+12 3.6934e+12 7.3132e+12 
334 1 -46.4276 -15.0852 26.9338 4.09862e+12 -1.09151e+13 4.48882e+12 -5.59585e+12 
12334 1 -48.0297 -15.6058 26.9338 4.32395e+12 -1.08517e+13 5.07015e+12 -5.78398e+12 
358 1 46.4276 -15.0852 26.9338 4.09862e+12 -1.09151e+13 4.48882e+12 5.59585e+12 
12358 1 48.0297 -15.6058 26.9338 4.32395e+12 -1.08517e+13 5.07015e+12 5.78398e+12 
12333 1 -49.3978 -10.4998 26.9338 4.32396e+12 -1.18803e+13 6.09876e+12 -4.00237e+12 
333 1 -47.7501 -10.1496 26.9338 4.09862e+12 -1.19104e+13 5.48396e+12 -3.87219e+12 