ITEM: TIMESTEP
6000
ITEM: NUMBER OF ATOMS
24000
ITEM: BOX BOUNDS pp pp pp
-1.3471398956672249e+03 1.3471398956672249e+03
-1.3471398956672249e+03 1.3471398956672249e+03
-1.3471398956672249e+03 1.3471398956672249e+03
ITEM: ATOMS id type x y z c_pte c_csym[1] c_csym[2] c_csym[4] 
12044 1 -10.5033 -49.414 1.68393 2.98531e+12 4.20392e+12 -1.20296e+13 -3.497e+12 
45 1 -5.10451 -48.5662 1.68393 2.82616e+12 4.27283e+12 -1.25834e+13 -1.69114e+12 
12045 1 -5.28054 -50.2411 1.68393 2.98523e+12 4.75362e+12 -1.25785e+13 -1.73283e+12 
46 1 5.49859e-06 -48.8337 1.68393 2.82627e+12 4.44027e+12 -1.27521e+13 9.80048e+10 
12046 1 5.75971e-06 -50.5179 1.68393 2.98534e+12 4.92451e+12 -1.27507e+13 1.06677e+11 
47 1 5.10452 -48.5662 1.68393 2.82615e+12 4.23206e+12 -1.25426e+13 1.88285e+12 
12047 1 5.28056 -50.2411 1.68393 2.98524e+12 4.70927e+12 -1.25341e+13 1.94153e+12 
12048 1 10.5033 -49.414 1.68393 2.98531e+12 4.11713e+12 -1.19428e+13 3.69191e+12 
12041 1 -25.2589 -43.7498 1.68393 2.9854e+12 5.9791e+11 -8.42478e+12 -7.60058e+12 
12042 1 -20.5475 -46.1504 1.68393 2.9854e+12 2.07957e+12 -9.9063e+12 -6.49652e+12 
42 1 -19.8624 -44.6118 1.68393 2.82631e+12 1.66872e+12 -9.98118e+12 -6.32291e+12 
12043 1 -15.6109 -48.0454 1.68393 2.9853e+12 3.29945e+12 -1.11251e+13 -5.10817e+12 
43 1 -15.0904 -46.4436 1.68393 2.82621e+12 2.85615e+12 -1.11675e+13 -4.97328e+12 
44 1 -10.1531 -47.7665 1.68393 2.82622e+12 3.73695e+12 -1.20484e+13 -3.40672e+12 
48 1 10.1531 -47.7665 1.68393 2.82622e+12 3.65723e+12 -1.19686e+13 3.58578e+12 
49 1 15.0904 -46.4436 1.68393 2.82622e+12 2.74095e+12 -1.10523e+13 5.13186e+12 
50 1 19.8624 -44.6118 1.68393 2.82631e+12 1.52306e+12 -9.83552e+12 6.45406e+12 
12049 1 15.6109 -48.0454 1.68393 2.9853e+12 3.17404e+12 -1.09996e+13 5.28079e+12 
12050 1 20.5475 -46.1504 1.68393 2.98539e+12 1.92101e+12 -9.74775e+12 6.63928e+12 
12051 1 25.2589 -43.7498 1.68393 2.9854e+12 4.13138e+11 -8.24e+12 7.70726e+12 
12039 1 -33.8031 -37.5421 1.68393 2.98542e+12 -2.88363e+12 -4.94342e+12 -8.77849e+12 
12040 1 -29.6937 -40.8698 1.68393 2.98529e+12 -1.08045e+12 -6.74507e+12 -8.37181e+12 
40 1 -28.7037 -39.5073 1.68393 2.82621e+12 -1.40618e+12 -6.90507e+12 -8.1449e+12 
41 1 -24.4168 -42.2912 1.68393 2.82632e+12 2.26828e+11 -8.53941e+12 -7.39585e+12 
51 1 24.4168 -42.2912 1.68393 2.82632e+12 5.70799e+10 -8.36966e+12 7.49385e+12 
12052 1 29.6937 -40.8698 1.68393 2.9853e+12 -1.28338e+12 -6.54215e+12 8.43775e+12 
52 1 28.7037 -39.5073 1.68393 2.82621e+12 -1.59258e+12 -6.71867e+12 8.20546e+12 
12053 1 33.8031 -37.5421 1.68393 2.98541e+12 -3.09583e+12 -4.73124e+12 8.80078e+12 
38 1 -36.2905 -32.6761 1.68393 2.82633e+12 -4.95749e+12 -3.35528e+12 -8.55978e+12 
12038 1 -37.5421 -33.8031 1.68393 2.98541e+12 -4.73124e+12 -3.09583e+12 -8.80078e+12 
39 1 -32.6761 -36.2905 1.68393 2.82634e+12 -3.16035e+12 -5.15242e+12 -8.5393e+12 
53 1 32.6761 -36.2905 1.68393 2.82633e+12 -3.35528e+12 -4.95749e+12 8.55978e+12 
54 1 36.2905 -32.6761 1.68393 2.82634e+12 -5.15242e+12 -3.16035e+12 8.5393e+12 
12054 1 37.5421 -33.8031 1.68393 2.98542e+12 -4.94342e+12 -2.88363e+12 8.77849e+12 
36 1 -42.2912 -24.4168 1.68393 2.82632e+12 -8.36966e+12 5.70799e+10 -7.49385e+12 
12036 1 -43.7498 -25.2589 1.68393 2.9854e+12 -8.24e+12 4.13138e+11 -7.70726e+12 
12037 1 -40.8698 -29.6937 1.68393 2.9853e+12 -6.54215e+12 -1.28338e+12 -8.43775e+12 
37 1 -39.5073 -28.7037 1.68393 2.82621e+12 -6.71867e+12 -1.59258e+12 -8.20546e+12 
55 1 39.5073 -28.7037 1.68393 2.82621e+12 -6.90507e+12 -1.40618e+12 8.1449e+12 
56 1 42.2912 -24.4168 1.68393 2.82632e+12 -8.53941e+12 2.26828e+11 7.39585e+12 
12055 1 40.8698 -29.6937 1.68393 2.98529e+12 -6.74507e+12 -1.08045e+12 8.37181e+12 
12056 1 43.7498 -25.2589 1.68393 2.9854e+12 -8.42478e+12 5.9791e+11 7.60058e+12 
12035 1 -46.1504 -20.5475 1.68393 2.98539e+12 -9.74775e+12 1.92101e+12 -6.63928e+12 
35 1 -44.6118 -19.8624 1.68393 2.82631e+12 -9.83552e+12 1.52306e+12 -6.45406e+12 
57 1 44.6118 -19.8624 1.68393 2.82631e+12 -9.98118e+12 1.66872e+12 6.32291e+12 
12057 1 46.1504 -20.5475 1.68393 2.9854e+12 -9.9063e+12 2.07957e+12 6.49652e+12 
34 1 -46.4436 -15.0904 1.68393 2.82622e+12 -1.10523e+13 2.74095e+12 -5.13186e+12 
12034 1 -48.0454 -15.6109 1.68393 2.9853e+12 -1.09996e+13 3.17404e+12 -5.28079e+12 
58 1 46.4436 -15.0904 1.68393 2.82621e+12 -1.11675e+13 2.85615e+12 4.97328e+12 
12058 1 48.0454 -15.6109 1.68393 2.9853e+12 -1.11251e+13 3.29945e+12 5.10817e+12 
12033 1 -49.414 -10.5033 1.68393 2.98531e+12 -1.19428e+13 4.11713e+12 -3.69191e+12 
33 1 -47.7665 -10.1531 1.68393 2.82622e+12 -1.19686e+13 3.65723e+12 -3.58578e+12 
12059 1 49.414 -10.5033 1.68393 2.98531e+12 -1.20296e+13 4.20392e+12 3.497e+12 
59 1 47.7665 -10.1531 1.68393 2.82622e+12 -1.20484e+13 3.73695e+12 3.40672e+12 
32 1 -48.5662 -5.10452 1.68393 2.82615e+12 -1.25426e+13 4.23206e+12 -1.88285e+12 
12032 1 -50.2411 -5.28056 1.68393 2.98524e+12 -1.25341e+13 4.70927e+12 -1.94153e+12 
31 1 -48.8337 -5.49859e-06 1.68393 2.82627e+12 -1.27521e+13 4.44027e+12 -9.80048e+10 
12031 1 -50.5179 -5.75969e-06 1.68393 2.98534e+12 -1.27507e+13 4.92451e+12 -1.06677e+11 
60 1 48.5662 -5.10451 1.68393 2.82616e+12 -1.25834e+13 4.27283e+12 1.69114e+12 
12060 1 50.2411 -5.28054 1.68393 2.98523e+12 -1.25785e+13 4.75362e+12 1.73283e+12 
12104 1 -10.5033 -49.414 6.7357 4.33045e+12 6.10481e+12 -1.1893e+13 -4.00653e+12 
12164 1 -10.5033 -49.414 11.7875 4.33046e+12 6.10482e+12 -1.1893e+13 -4.00653e+12 
105 1 -5.10452 -48.5662 6.7357 4.10494e+12 6.10556e+12 -1.25374e+13 -1.98122e+12 
12105 1 -5.28055 -50.2411 6.7357 4.33038e+12 6.74119e+12 -1.25285e+13 -2.04782e+12 
165 1 -5.10452 -48.5662 11.7875 4.10495e+12 6.10556e+12 -1.25374e+13 -1.98122e+12 
12165 1 -5.28055 -50.2411 11.7875 4.33039e+12 6.74119e+12 -1.25285e+13 -2.04783e+12 
106 1 -2.27374e-13 -48.8337 6.7357 4.10506e+12 6.3138e+12 -1.2747e+13 530371 
12106 1 -2.27374e-13 -50.5179 6.7357 4.33048e+12 6.95639e+12 -1.27451e+13 577915 
166 1 -2.27374e-13 -48.8337 11.7875 4.10507e+12 6.31381e+12 -1.2747e+13 125.605 
12166 1 -2.27374e-13 -50.5179 11.7875 4.33049e+12 6.95639e+12 -1.27451e+13 -94.9215 
107 1 5.10452 -48.5662 6.7357 4.10494e+12 6.10555e+12 -1.25374e+13 1.98122e+12 
12107 1 5.28055 -50.2411 6.7357 4.33038e+12 6.74119e+12 -1.25285e+13 2.04783e+12 
167 1 5.10452 -48.5662 11.7875 4.10495e+12 6.10556e+12 -1.25374e+13 1.98122e+12 
12167 1 5.28055 -50.2411 11.7875 4.33039e+12 6.74119e+12 -1.25285e+13 2.04783e+12 
12108 1 10.5033 -49.414 6.7357 4.33045e+12 6.10481e+12 -1.1893e+13 4.00653e+12 
12168 1 10.5033 -49.414 11.7875 4.33046e+12 6.10482e+12 -1.1893e+13 4.00653e+12 
12101 1 -25.2589 -43.7498 6.7357 4.33055e+12 2.03084e+12 -7.82021e+12 -8.53131e+12 
12161 1 -25.2589 -43.7498 11.7875 4.33056e+12 2.03084e+12 -7.82021e+12 -8.53132e+12 
12102 1 -20.5475 -46.1504 6.7357 4.33054e+12 3.69695e+12 -9.4862e+12 -7.3208e+12 
102 1 -19.8624 -44.6118 6.7357 4.1051e+12 3.16032e+12 -9.59412e+12 -7.08272e+12 
12103 1 -15.6109 -48.0454 6.7357 4.33045e+12 5.07513e+12 -1.08632e+13 -5.78999e+12 
12162 1 -20.5475 -46.1504 11.7875 4.33055e+12 3.69696e+12 -9.4862e+12 -7.3208e+12 
162 1 -19.8624 -44.6118 11.7875 4.10511e+12 3.16033e+12 -9.59412e+12 -7.08272e+12 
12163 1 -15.6109 -48.0454 11.7875 4.33046e+12 5.07514e+12 -1.08632e+13 -5.78999e+12 
103 1 -15.0904 -46.4436 6.7357 4.105e+12 4.49366e+12 -1.09263e+13 -5.60167e+12 
104 1 -10.1531 -47.7665 6.7357 4.105e+12 5.48984e+12 -1.19226e+13 -3.87622e+12 
163 1 -15.0904 -46.4436 11.7875 4.10501e+12 4.49367e+12 -1.09263e+13 -5.60167e+12 
164 1 -10.1531 -47.7665 11.7875 4.10501e+12 5.48985e+12 -1.19226e+13 -3.87622e+12 
108 1 10.1531 -47.7665 6.7357 4.105e+12 5.48984e+12 -1.19226e+13 3.87622e+12 
109 1 15.0904 -46.4436 6.7357 4.105e+12 4.49366e+12 -1.09263e+13 5.60167e+12 
168 1 10.1531 -47.7665 11.7875 4.10501e+12 5.48985e+12 -1.19226e+13 3.87622e+12 
169 1 15.0904 -46.4436 11.7875 4.10501e+12 4.49367e+12 -1.09263e+13 5.60167e+12 
110 1 19.8624 -44.6118 6.7357 4.1051e+12 3.16032e+12 -9.59412e+12 7.08272e+12 
12109 1 15.6109 -48.0454 6.7357 4.33045e+12 5.07513e+12 -1.08632e+13 5.78999e+12 
12110 1 20.5475 -46.1504 6.7357 4.33054e+12 3.69695e+12 -9.4862e+12 7.3208e+12 
170 1 19.8624 -44.6118 11.7875 4.10511e+12 3.16033e+12 -9.59412e+12 7.08272e+12 
12169 1 15.6109 -48.0454 11.7875 4.33046e+12 5.07514e+12 -1.08632e+13 5.78999e+12 
12170 1 20.5475 -46.1504 11.7875 4.33055e+12 3.69696e+12 -9.4862e+12 7.3208e+12 
12111 1 25.2589 -43.7498 6.7357 4.33055e+12 2.03084e+12 -7.82021e+12 8.53131e+12 
12171 1 25.2589 -43.7498 11.7875 4.33056e+12 2.03084e+12 -7.82021e+12 8.53132e+12 
12099 1 -33.8031 -37.5421 6.7357 4.33056e+12 -1.86509e+12 -3.92448e+12 -9.79721e+12 
12159 1 -33.8031 -37.5421 11.7875 4.33056e+12 -1.86508e+12 -3.92448e+12 -9.79722e+12 
12100 1 -29.6937 -40.8698 6.7357 4.33044e+12 1.49908e+11 -5.93793e+12 -9.36833e+12 
100 1 -28.7037 -39.5073 6.7357 4.105e+12 -2.71362e+11 -6.16122e+12 -9.06365e+12 
12160 1 -29.6937 -40.8698 11.7875 4.33045e+12 1.49913e+11 -5.93793e+12 -9.36833e+12 
160 1 -28.7037 -39.5073 11.7875 4.10501e+12 -2.71358e+11 -6.16121e+12 -9.06365e+12 
101 1 -24.4168 -42.2912 6.7357 4.10512e+12 1.54838e+12 -7.9823e+12 -8.25388e+12 
161 1 -24.4168 -42.2912 11.7875 4.10512e+12 1.54839e+12 -7.98229e+12 -8.25389e+12 
111 1 24.4168 -42.2912 6.7357 4.10512e+12 1.54838e+12 -7.9823e+12 8.25388e+12 
171 1 24.4168 -42.2912 11.7875 4.10512e+12 1.54839e+12 -7.98229e+12 8.25389e+12 
12112 1 29.6937 -40.8698 6.7357 4.33044e+12 1.49907e+11 -5.93793e+12 9.36833e+12 
112 1 28.7037 -39.5073 6.7357 4.105e+12 -2.71363e+11 -6.16122e+12 9.06365e+12 
12172 1 29.6937 -40.8698 11.7875 4.33045e+12 1.49913e+11 -5.93793e+12 9.36833e+12 
172 1 28.7037 -39.5073 11.7875 4.10501e+12 -2.71358e+11 -6.16121e+12 9.06365e+12 
12113 1 33.8031 -37.5421 6.7357 4.33056e+12 -1.86509e+12 -3.92448e+12 9.79721e+12 
12173 1 33.8031 -37.5421 11.7875 4.33056e+12 -1.86508e+12 -3.92448e+12 9.79722e+12 
98 1 -36.2905 -32.6761 6.7357 4.10512e+12 -4.21327e+12 -2.22083e+12 -9.47861e+12 
12098 1 -37.5421 -33.8031 6.7357 4.33056e+12 -3.92448e+12 -1.86509e+12 -9.79721e+12 
158 1 -36.2905 -32.6761 11.7875 4.10513e+12 -4.21327e+12 -2.22083e+12 -9.47862e+12 
12158 1 -37.5421 -33.8031 11.7875 4.33056e+12 -3.92448e+12 -1.86508e+12 -9.79722e+12 
99 1 -32.6761 -36.2905 6.7357 4.10512e+12 -2.22083e+12 -4.21328e+12 -9.47861e+12 
159 1 -32.6761 -36.2905 11.7875 4.10513e+12 -2.22083e+12 -4.21327e+12 -9.47862e+12 
113 1 32.6761 -36.2905 6.7357 4.10512e+12 -2.22083e+12 -4.21327e+12 9.47861e+12 
173 1 32.6761 -36.2905 11.7875 4.10513e+12 -2.22083e+12 -4.21327e+12 9.47862e+12 
114 1 36.2905 -32.6761 6.7357 4.10512e+12 -4.21328e+12 -2.22083e+12 9.47861e+12 
12114 1 37.5421 -33.8031 6.7357 4.33056e+12 -3.92448e+12 -1.86509e+12 9.79721e+12 
174 1 36.2905 -32.6761 11.7875 4.10513e+12 -4.21327e+12 -2.22083e+12 9.47862e+12 
12174 1 37.5421 -33.8031 11.7875 4.33056e+12 -3.92448e+12 -1.86508e+12 9.79722e+12 
96 1 -42.2912 -24.4168 6.7357 4.10512e+12 -7.9823e+12 1.54838e+12 -8.25388e+12 
12096 1 -43.7498 -25.2589 6.7357 4.33055e+12 -7.82021e+12 2.03084e+12 -8.53131e+12 
12097 1 -40.8698 -29.6937 6.7357 4.33044e+12 -5.93793e+12 1.49907e+11 -9.36833e+12 
97 1 -39.5073 -28.7037 6.7357 4.105e+12 -6.16122e+12 -2.71363e+11 -9.06365e+12 
156 1 -42.2912 -24.4168 11.7875 4.10512e+12 -7.98229e+12 1.54839e+12 -8.25389e+12 
12156 1 -43.7498 -25.2589 11.7875 4.33056e+12 -7.82021e+12 2.03084e+12 -8.53132e+12 
12157 1 -40.8698 -29.6937 11.7875 4.33045e+12 -5.93793e+12 1.49913e+11 -9.36833e+12 
157 1 -39.5073 -28.7037 11.7875 4.10501e+12 -6.16121e+12 -2.71358e+11 -9.06365e+12 
115 1 39.5073 -28.7037 6.7357 4.105e+12 -6.16122e+12 -2.71362e+11 9.06365e+12 
116 1 42.2912 -24.4168 6.7357 4.10512e+12 -7.9823e+12 1.54838e+12 8.25388e+12 
12115 1 40.8698 -29.6937 6.7357 4.33044e+12 -5.93793e+12 1.49908e+11 9.36833e+12 
12116 1 43.7498 -25.2589 6.7357 4.33055e+12 -7.82021e+12 2.03084e+12 8.53131e+12 
175 1 39.5073 -28.7037 11.7875 4.10501e+12 -6.16121e+12 -2.71358e+11 9.06365e+12 
176 1 42.2912 -24.4168 11.7875 4.10512e+12 -7.98229e+12 1.54839e+12 8.25389e+12 
12175 1 40.8698 -29.6937 11.7875 4.33045e+12 -5.93793e+12 1.49913e+11 9.36833e+12 
12176 1 43.7498 -25.2589 11.7875 4.33056e+12 -7.82021e+12 2.03084e+12 8.53132e+12 
12095 1 -46.1504 -20.5475 6.7357 4.33054e+12 -9.4862e+12 3.69695e+12 -7.3208e+12 
12155 1 -46.1504 -20.5475 11.7875 4.33055e+12 -9.4862e+12 3.69696e+12 -7.3208e+12 
95 1 -44.6118 -19.8624 6.7357 4.1051e+12 -9.59412e+12 3.16032e+12 -7.08272e+12 
155 1 -44.6118 -19.8624 11.7875 4.10511e+12 -9.59412e+12 3.16033e+12 -7.08272e+12 
117 1 44.6118 -19.8624 6.7357 4.1051e+12 -9.59412e+12 3.16032e+12 7.08272e+12 
177 1 44.6118 -19.8624 11.7875 4.10511e+12 -9.59412e+12 3.16033e+12 7.08272e+12 
12117 1 46.1504 -20.5475 6.7357 4.33054e+12 -9.4862e+12 3.69695e+12 7.3208e+12 
12177 1 46.1504 -20.5475 11.7875 4.33055e+12 -9.4862e+12 3.69696e+12 7.3208e+12 
94 1 -46.4436 -15.0904 6.7357 4.105e+12 -1.09263e+13 4.49366e+12 -5.60167e+12 
12094 1 -48.0454 -15.6109 6.7357 4.33045e+12 -1.08632e+13 5.07513e+12 -5.78999e+12 
154 1 -46.4436 -15.0904 11.7875 4.10501e+12 -1.09263e+13 4.49367e+12 -5.60167e+12 
12154 1 -48.0454 -15.6109 11.7875 4.33046e+12 -1.08632e+13 5.07514e+12 -5.78999e+12 
118 1 46.4436 -15.0904 6.7357 4.105e+12 -1.09263e+13 4.49366e+12 5.60167e+12 
12118 1 48.0454 -15.6109 6.7357 4.33045e+12 -1.08632e+13 5.07513e+12 5.78999e+12 
178 1 46.4436 -15.0904 11.7875 4.10501e+12 -1.09263e+13 4.49367e+12 5.60167e+12 
12178 1 48.0454 -15.6109 11.7875 4.33046e+12 -1.08632e+13 5.07514e+12 5.78999e+12 
12093 1 -49.414 -10.5033 6.7357 4.33045e+12 -1.1893e+13 6.10481e+12 -4.00653e+12 
93 1 -47.7665 -10.1531 6.7357 4.105e+12 -1.19226e+13 5.48984e+12 -3.87622e+12 
12153 1 -49.414 -10.5033 11.7875 4.33046e+12 -1.1893e+13 6.10482e+12 -4.00653e+12 
153 1 -47.7665 -10.1531 11.7875 4.10501e+12 -1.19226e+13 5.48985e+12 -3.87622e+12 
12119 1 49.414 -10.5033 6.7357 4.33045e+12 -1.1893e+13 6.10481e+12 4.00653e+12 
119 1 47.7665 -10.1531 6.7357 4.105e+12 -1.19226e+13 5.48984e+12 3.87622e+12 
12179 1 49.414 -10.5033 11.7875 4.33046e+12 -1.1893e+13 6.10482e+12 4.00653e+12 
179 1 47.7665 -10.1531 11.7875 4.10501e+12 -1.19226e+13 5.48985e+12 3.87622e+12 
92 1 -48.5662 -5.10452 6.7357 4.10494e+12 -1.25374e+13 6.10555e+12 -1.98122e+12 
12092 1 -50.2411 -5.28055 6.7357 4.33038e+12 -1.25285e+13 6.74119e+12 -2.04783e+12 
152 1 -48.5662 -5.10452 11.7875 4.10495e+12 -1.25374e+13 6.10556e+12 -1.98122e+12 
12152 1 -50.2411 -5.28055 11.7875 4.33039e+12 -1.25285e+13 6.74119e+12 -2.04783e+12 
91 1 -48.8337 -2.27374e-13 6.7357 4.10506e+12 -1.2747e+13 6.3138e+12 -530553 
151 1 -48.8337 -2.27374e-13 11.7875 4.10507e+12 -1.2747e+13 6.31381e+12 100.6 
12151 1 -50.5179 -2.27374e-13 11.7875 4.33049e+12 -1.27451e+13 6.95639e+12 -3.73476 
12091 1 -50.5179 -2.27374e-13 6.7357 4.33048e+12 -1.27451e+13 6.95639e+12 -578080 
120 1 48.5662 -5.10452 6.7357 4.10494e+12 -1.25374e+13 6.10556e+12 1.98122e+12 
12120 1 50.2411 -5.28055 6.7357 4.33038e+12 -1.25285e+13 6.74119e+12 2.04782e+12 
180 1 48.5662 -5.10452 11.7875 4.10495e+12 -1.25374e+13 6.10556e+12 1.98122e+12 
12180 1 50.2411 -5.28055 11.7875 4.33039e+12 -1.25285e+13 6.74119e+12 2.04783e+12 
12061 1 50.5179 -2.27374e-13 6.7357 4.33048e+12 -1.27451e+13 6.95639e+12 -577917 
121 1 48.8337 -2.27374e-13 11.7875 4.10507e+12 -1.2747e+13 6.31381e+12 -129.772 
12121 1 50.5179 -2.27374e-13 11.7875 4.33049e+12 -1.27451e+13 6.95639e+12 96.9712 
61 1 48.8337 -2.27374e-13 6.7357 4.10506e+12 -1.2747e+13 6.3138e+12 -530439 
12224 1 -10.5033 -49.414 16.8392 4.33046e+12 6.10482e+12 -1.1893e+13 -4.00653e+12 
225 1 -5.10452 -48.5662 16.8392 4.10495e+12 6.10556e+12 -1.25374e+13 -1.98122e+12 
12225 1 -5.28055 -50.2411 16.8392 4.33039e+12 6.74119e+12 -1.25285e+13 -2.04783e+12 
226 1 -2.27374e-13 -48.8337 16.8392 4.10507e+12 6.31381e+12 -1.2747e+13 128.848 
12226 1 -2.27374e-13 -50.5179 16.8392 4.33049e+12 6.95639e+12 -1.27451e+13 40.8932 
227 1 5.10452 -48.5662 16.8392 4.10495e+12 6.10556e+12 -1.25374e+13 1.98122e+12 
12227 1 5.28055 -50.2411 16.8392 4.33039e+12 6.74119e+12 -1.25285e+13 2.04783e+12 
12228 1 10.5033 -49.414 16.8392 4.33046e+12 6.10482e+12 -1.1893e+13 4.00653e+12 
12221 1 -25.2589 -43.7498 16.8392 4.33056e+12 2.03084e+12 -7.82021e+12 -8.53132e+12 
12222 1 -20.5475 -46.1504 16.8392 4.33055e+12 3.69696e+12 -9.4862e+12 -7.3208e+12 
222 1 -19.8624 -44.6118 16.8392 4.10511e+12 3.16033e+12 -9.59412e+12 -7.08272e+12 
12223 1 -15.6109 -48.0454 16.8392 4.33046e+12 5.07514e+12 -1.08632e+13 -5.78999e+12 
223 1 -15.0904 -46.4436 16.8392 4.10501e+12 4.49367e+12 -1.09263e+13 -5.60167e+12 
224 1 -10.1531 -47.7665 16.8392 4.10501e+12 5.48985e+12 -1.19226e+13 -3.87622e+12 
228 1 10.1531 -47.7665 16.8392 4.10501e+12 5.48985e+12 -1.19226e+13 3.87622e+12 
229 1 15.0904 -46.4436 16.8392 4.10501e+12 4.49367e+12 -1.09263e+13 5.60167e+12 
230 1 19.8624 -44.6118 16.8392 4.10511e+12 3.16033e+12 -9.59412e+12 7.08272e+12 
12229 1 15.6109 -48.0454 16.8392 4.33046e+12 5.07514e+12 -1.08632e+13 5.78999e+12 
12230 1 20.5475 -46.1504 16.8392 4.33055e+12 3.69696e+12 -9.4862e+12 7.3208e+12 
12231 1 25.2589 -43.7498 16.8392 4.33056e+12 2.03084e+12 -7.82021e+12 8.53132e+12 
12219 1 -33.8031 -37.5421 16.8392 4.33056e+12 -1.86508e+12 -3.92448e+12 -9.79722e+12 
12220 1 -29.6937 -40.8698 16.8392 4.33045e+12 1.49913e+11 -5.93793e+12 -9.36833e+12 
220 1 -28.7037 -39.5073 16.8392 4.10501e+12 -2.71358e+11 -6.16121e+12 -9.06365e+12 
221 1 -24.4168 -42.2912 16.8392 4.10512e+12 1.54839e+12 -7.98229e+12 -8.25389e+12 
231 1 24.4168 -42.2912 16.8392 4.10512e+12 1.54839e+12 -7.98229e+12 8.25389e+12 
12232 1 29.6937 -40.8698 16.8392 4.33045e+12 1.49913e+11 -5.93793e+12 9.36833e+12 
232 1 28.7037 -39.5073 16.8392 4.10501e+12 -2.71358e+11 -6.16121e+12 9.06365e+12 
12233 1 33.8031 -37.5421 16.8392 4.33056e+12 -1.86508e+12 -3.92448e+12 9.79722e+12 
218 1 -36.2905 -32.6761 16.8392 4.10513e+12 -4.21327e+12 -2.22083e+12 -9.47862e+12 
12218 1 -37.5421 -33.8031 16.8392 4.33056e+12 -3.92448e+12 -1.86508e+12 -9.79722e+12 
219 1 -32.6761 -36.2905 16.8392 4.10513e+12 -2.22083e+12 -4.21327e+12 -9.47862e+12 
233 1 32.6761 -36.2905 16.8392 4.10513e+12 -2.22083e+12 -4.21327e+12 9.47862e+12 
234 1 36.2905 -32.6761 16.8392 4.10513e+12 -4.21327e+12 -2.22083e+12 9.47862e+12 
12234 1 37.5421 -33.8031 16.8392 4.33056e+12 -3.92448e+12 -1.86508e+12 9.79722e+12 
216 1 -42.2912 -24.4168 16.8392 4.10512e+12 -7.98229e+12 1.54839e+12 -8.25389e+12 
12216 1 -43.7498 -25.2589 16.8392 4.33056e+12 -7.82021e+12 2.03084e+12 -8.53132e+12 
12217 1 -40.8698 -29.6937 16.8392 4.33045e+12 -5.93793e+12 1.49913e+11 -9.36833e+12 
217 1 -39.5073 -28.7037 16.8392 4.10501e+12 -6.16121e+12 -2.71358e+11 -9.06365e+12 
235 1 39.5073 -28.7037 16.8392 4.10501e+12 -6.16121e+12 -2.71358e+11 9.06365e+12 
236 1 42.2912 -24.4168 16.8392 4.10512e+12 -7.98229e+12 1.54839e+12 8.25389e+12 
12235 1 40.8698 -29.6937 16.8392 4.33045e+12 -5.93793e+12 1.49913e+11 9.36833e+12 
12236 1 43.7498 -25.2589 16.8392 4.33056e+12 -7.82021e+12 2.03084e+12 8.53132e+12 
12215 1 -46.1504 -20.5475 16.8392 4.33055e+12 -9.4862e+12 3.69696e+12 -7.3208e+12 
215 1 -44.6118 -19.8624 16.8392 4.10511e+12 -9.59412e+12 3.16033e+12 -7.08272e+12 
237 1 44.6118 -19.8624 16.8392 4.10511e+12 -9.59412e+12 3.16033e+12 7.08272e+12 
12237 1 46.1504 -20.5475 16.8392 4.33055e+12 -9.4862e+12 3.69696e+12 7.3208e+12 
214 1 -46.4436 -15.0904 16.8392 4.10501e+12 -1.09263e+13 4.49367e+12 -5.60167e+12 
12214 1 -48.0454 -15.6109 16.8392 4.33046e+12 -1.08632e+13 5.07514e+12 -5.78999e+12 
238 1 46.4436 -15.0904 16.8392 4.10501e+12 -1.09263e+13 4.49367e+12 5.60167e+12 
12238 1 48.0454 -15.6109 16.8392 4.33046e+12 -1.08632e+13 5.07514e+12 5.78999e+12 
12213 1 -49.414 -10.5033 16.8392 4.33046e+12 -1.1893e+13 6.10482e+12 -4.00653e+12 
213 1 -47.7665 -10.1531 16.8392 4.10501e+12 -1.19226e+13 5.48985e+12 -3.87622e+12 
12239 1 49.414 -10.5033 16.8392 4.33046e+12 -1.1893e+13 6.10482e+12 4.00653e+12 
239 1 47.7665 -10.1531 16.8392 4.10501e+12 -1.19226e+13 5.48985e+12 3.87622e+12 
212 1 -48.5662 -5.10452 16.8392 4.10495e+12 -1.25374e+13 6.10556e+12 -1.98122e+12 
12212 1 -50.2411 -5.28055 16.8392 4.33039e+12 -1.25285e+13 6.74119e+12 -2.04783e+12 
211 1 -48.8337 -2.27374e-13 16.8392 4.10507e+12 -1.2747e+13 6.31381e+12 -11.173 
12211 1 -50.5179 -2.27374e-13 16.8392 4.33049e+12 -1.27451e+13 6.95639e+12 -103.746 
240 1 48.5662 -5.10452 16.8392 4.10495e+12 -1.25374e+13 6.10556e+12 1.98122e+12 
12240 1 50.2411 -5.28055 16.8392 4.33039e+12 -1.25285e+13 6.74119e+12 2.04783e+12 
181 1 48.8337 -2.27374e-13 16.8392 4.10507e+12 -1.2747e+13 6.31381e+12 -106.759 
12181 1 50.5179 -2.27374e-13 16.8392 4.33049e+12 -1.27451e+13 6.95639e+12 -55.9472 
12284 1 -10.5033 -49.414 21.891 4.33046e+12 6.10482e+12 -1.1893e+13 -4.00653e+12 
285 1 -5.10452 -48.5662 21.891 4.10495e+12 6.10556e+12 -1.25374e+13 -1.98122e+12 
12285 1 -5.28055 -50.2411 21.891 4.33039e+12 6.74119e+12 -1.25285e+13 -2.04783e+12 
286 1 -2.27374e-13 -48.8337 21.891 4.10507e+12 6.31381e+12 -1.2747e+13 116.507 
12286 1 -2.27374e-13 -50.5179 21.891 4.33049e+12 6.95639e+12 -1.27451e+13 -123.7 
287 1 5.10452 -48.5662 21.891 4.10495e+12 6.10556e+12 -1.25374e+13 1.98122e+12 
12287 1 5.28055 -50.2411 21.891 4.33039e+12 6.74119e+12 -1.25285e+13 2.04783e+12 
12288 1 10.5033 -49.414 21.891 4.33046e+12 6.10482e+12 -1.1893e+13 4.00653e+12 
12281 1 -25.2589 -43.7498 21.891 4.33056e+12 2.03084e+12 -7.82021e+12 -8.53132e+12 
12282 1 -20.5475 -46.1504 21.891 4.33055e+12 3.69696e+12 -9.4862e+12 -7.3208e+12 
282 1 -19.8624 -44.6118 21.891 4.10511e+12 3.16033e+12 -9.59412e+12 -7.08272e+12 
12283 1 -15.6109 -48.0454 21.891 4.33046e+12 5.07514e+12 -1.08632e+13 -5.78999e+12 
283 1 -15.0904 -46.4436 21.891 4.10501e+12 4.49367e+12 -1.09263e+13 -5.60167e+12 
284 1 -10.1531 -47.7665 21.891 4.10501e+12 5.48985e+12 -1.19226e+13 -3.87622e+12 
288 1 10.1531 -47.7665 21.891 4.10501e+12 5.48985e+12 -1.19226e+13 3.87622e+12 
289 1 15.0904 -46.4436 21.891 4.10501e+12 4.49367e+12 -1.09263e+13 5.60167e+12 
290 1 19.8624 -44.6118 21.891 4.10511e+12 3.16033e+12 -9.59412e+12 7.08272e+12 
12289 1 15.6109 -48.0454 21.891 4.33046e+12 5.07514e+12 -1.08632e+13 5.78999e+12 
12290 1 20.5475 -46.1504 21.891 4.33055e+12 3.69696e+12 -9.4862e+12 7.3208e+12 
12291 1 25.2589 -43.7498 21.891 4.33056e+12 2.03084e+12 -7.82021e+12 8.53132e+12 
12279 1 -33.8031 -37.5421 21.891 4.33056e+12 -1.86508e+12 -3.92448e+12 -9.79722e+12 
12280 1 -29.6937 -40.8698 21.891 4.33045e+12 1.49913e+11 -5.93793e+12 -9.36833e+12 
280 1 -28.7037 -39.5073 21.891 4.10501e+12 -2.71358e+11 -6.16121e+12 -9.06365e+12 
281 1 -24.4168 -42.2912 21.891 4.10512e+12 1.54839e+12 -7.98229e+12 -8.25389e+12 
291 1 24.4168 -42.2912 21.891 4.10512e+12 1.54839e+12 -7.98229e+12 8.25389e+12 
12292 1 29.6937 -40.8698 21.891 4.33045e+12 1.49913e+11 -5.93793e+12 9.36833e+12 
292 1 28.7037 -39.5073 21.891 4.10501e+12 -2.71358e+11 -6.16121e+12 9.06365e+12 
12293 1 33.8031 -37.5421 21.891 4.33056e+12 -1.86508e+12 -3.92448e+12 9.79722e+12 
278 1 -36.2905 -32.6761 21.891 4.10513e+12 -4.21327e+12 -2.22083e+12 -9.47862e+12 
12278 1 -37.5421 -33.8031 21.891 4.33056e+12 -3.92448e+12 -1.86508e+12 -9.79722e+12 
279 1 -32.6761 -36.2905 21.891 4.10513e+12 -2.22083e+12 -4.21327e+12 -9.47862e+12 
293 1 32.6761 -36.2905 21.891 4.10513e+12 -2.22083e+12 -4.21327e+12 9.47862e+12 
294 1 36.2905 -32.6761 21.891 4.10513e+12 -4.21327e+12 -2.22083e+12 9.47862e+12 
12294 1 37.5421 -33.8031 21.891 4.33056e+12 -3.92448e+12 -1.86508e+12 9.79722e+12 
276 1 -42.2912 -24.4168 21.891 4.10512e+12 -7.98229e+12 1.54839e+12 -8.25389e+12 
12276 1 -43.7498 -25.2589 21.891 4.33056e+12 -7.82021e+12 2.03084e+12 -8.53132e+12 
12277 1 -40.8698 -29.6937 21.891 4.33045e+12 -5.93793e+12 1.49913e+11 -9.36833e+12 
277 1 -39.5073 -28.7037 21.891 4.10501e+12 -6.16121e+12 -2.71358e+11 -9.06365e+12 
295 1 39.5073 -28.7037 21.891 4.10501e+12 -6.16121e+12 -2.71358e+11 9.06365e+12 
296 1 42.2912 -24.4168 21.891 4.10512e+12 -7.98229e+12 1.54839e+12 8.25389e+12 
12295 1 40.8698 -29.6937 21.891 4.33045e+12 -5.93793e+12 1.49913e+11 9.36833e+12 
12296 1 43.7498 -25.2589 21.891 4.33056e+12 -7.82021e+12 2.03084e+12 8.53132e+12 
12275 1 -46.1504 -20.5475 21.891 4.33055e+12 -9.4862e+12 3.69696e+12 -7.3208e+12 
275 1 -44.6118 -19.8624 21.891 4.10511e+12 -9.59412e+12 3.16033e+12 -7.08272e+12 
297 1 44.6118 -19.8624 21.891 4.10511e+12 -9.59412e+12 3.16033e+12 7.08272e+12 
12297 1 46.1504 -20.5475 21.891 4.33055e+12 -9.4862e+12 3.69696e+12 7.3208e+12 
274 1 -46.4436 -15.0904 21.891 4.10501e+12 -1.09263e+13 4.49367e+12 -5.60167e+12 
12274 1 -48.0454 -15.6109 21.891 4.33046e+12 -1.08632e+13 5.07514e+12 -5.78999e+12 
298 1 46.4436 -15.0904 21.891 4.10501e+12 -1.09263e+13 4.49367e+12 5.60167e+12 
12298 1 48.0454 -15.6109 21.891 4.33046e+12 -1.08632e+13 5.07514e+12 5.78999e+12 
12273 1 -49.414 -10.5033 21.891 4.33046e+12 -1.1893e+13 6.10482e+12 -4.00653e+12 
273 1 -47.7665 -10.1531 21.891 4.10501e+12 -1.19226e+13 5.48985e+12 -3.87622e+12 
12299 1 49.414 -10.5033 21.891 4.33046e+12 -1.1893e+13 6.10482e+12 4.00653e+12 
299 1 47.7665 -10.1531 21.891 4.10501e+12 -1.19226e+13 5.48985e+12 3.87622e+12 
272 1 -48.5662 -5.10452 21.891 4.10495e+12 -1.25374e+13 6.10556e+12 -1.98122e+12 
12272 1 -50.2411 -5.28055 21.891 4.33039e+12 -1.25285e+13 6.74119e+12 -2.04783e+12 
271 1 -48.8337 -2.27374e-13 21.891 4.10507e+12 -1.2747e+13 6.31381e+12 -21.6069 
12271 1 -50.5179 -2.27374e-13 21.891 4.33049e+12 -1.27451e+13 6.95639e+12 -97.1132 
300 1 48.5662 -5.10452 21.891 4.10495e+12 -1.25374e+13 6.10556e+12 1.98122e+12 
12300 1 50.2411 -5.28055 21.891 4.33039e+12 -1.25285e+13 6.74119e+12 2.04783e+12 
241 1 48.8337 -2.27374e-13 21.891 4.10507e+12 -1.2747e+13 6.31381e+12 71.2243 
12241 1 50.5179 -2.27374e-13 21.891 4.33049e+12 -1.27451e+13 6.95639e+12 124.469 
12344 1 -10.5033 -49.414 26.9428 4.33046e+12 6.10482e+12 -1.1893e+13 -4.00653e+12 
345 1 -5.10452 -48.5662 26.9428 4.10495e+12 6.10556e+12 -1.25374e+13 -1.98122e+12 
12345 1 -5.28055 -50.2411 26.9428 4.33039e+12 6.74119e+12 -1.25285e+13 -2.04783e+12 
346 1 -2.27374e-13 -48.8337 26.9428 4.10507e+12 6.31381e+12 -1.2747e+13 -27.0677 
12346 1 -2.27374e-13 -50.5179 26.9428 4.33049e+12 6.95639e+12 -1.27451e+13 69.4215 
347 1 5.10452 -48.5662 26.9428 4.10495e+12 6.10556e+12 -1.25374e+13 1.98122e+12 
12347 1 5.28055 -50.2411 26.9428 4.33039e+12 6.74119e+12 -1.25285e+13 2.04783e+12 
12348 1 10.5033 -49.414 26.9428 4.33046e+12 6.10482e+12 -1.1893e+13 4.00653e+12 
12341 1 -25.2589 -43.7498 26.9428 4.33056e+12 2.03084e+12 -7.82021e+12 -8.53132e+12 
12342 1 -20.5475 -46.1504 26.9428 4.33055e+12 3.69696e+12 -9.4862e+12 -7.3208e+12 
342 1 -19.8624 -44.6118 26.9428 4.10511e+12 3.16033e+12 -9.59412e+12 -7.08272e+12 
12343 1 -15.6109 -48.0454 26.9428 4.33046e+12 5.07514e+12 -1.08632e+13 -5.78999e+12 
343 1 -15.0904 -46.4436 26.9428 4.10501e+12 4.49367e+12 -1.09263e+13 -5.60167e+12 
344 1 -10.1531 -47.7665 26.9428 4.10501e+12 5.48985e+12 -1.19226e+13 -3.87622e+12 
348 1 10.1531 -47.7665 26.9428 4.10501e+12 5.48985e+12 -1.19226e+13 3.87622e+12 
349 1 15.0904 -46.4436 26.9428 4.10501e+12 4.49367e+12 -1.09263e+13 5.60167e+12 
350 1 19.8624 -44.6118 26.9428 4.10511e+12 3.16033e+12 -9.59412e+12 7.08272e+12 
12349 1 15.6109 -48.0454 26.9428 4.33046e+12 5.07514e+12 -1.08632e+13 5.78999e+12 
12350 1 20.5475 -46.1504 26.9428 4.33055e+12 3.69696e+12 -9.4862e+12 7.3208e+12 
12351 1 25.2589 -43.7498 26.9428 4.33056e+12 2.03084e+12 -7.82021e+12 8.53132e+12 
12339 1 -33.8031 -37.5421 26.9428 4.33056e+12 -1.86508e+12 -3.92448e+12 -9.79722e+12 
12340 1 -29.6937 -40.8698 26.9428 4.33045e+12 1.49913e+11 -5.93793e+12 -9.36833e+12 
340 1 -28.7037 -39.5073 26.9428 4.10501e+12 -2.71358e+11 -6.16121e+12 -9.06365e+12 
341 1 -24.4168 -42.2912 26.9428 4.10512e+12 1.54839e+12 -7.98229e+12 -8.25389e+12 
351 1 24.4168 -42.2912 26.9428 4.10512e+12 1.54839e+12 -7.98229e+12 8.25389e+12 
12352 1 29.6937 -40.8698 26.9428 4.33045e+12 1.49913e+11 -5.93793e+12 9.36833e+12 
352 1 28.7037 -39.5073 26.9428 4.10501e+12 -2.71358e+11 -6.16121e+12 9.06365e+12 
12353 1 33.8031 -37.5421 26.9428 4.33056e+12 -1.86508e+12 -3.92448e+12 9.79722e+12 
338 1 -36.2905 -32.6761 26.9428 4.10513e+12 -4.21327e+12 -2.22083e+12 -9.47862e+12 
12338 1 -37.5421 -33.8031 26.9428 4.33056e+12 -3.92448e+12 -1.86508e+12 -9.79722e+12 
339 1 -32.6761 -36.2905 26.9428 4.10513e+12 -2.22083e+12 -4.21327e+12 -9.47862e+12 
353 1 32.6761 -36.2905 26.9428 4.10513e+12 -2.22083e+12 -4.21327e+12 9.47862e+12 
354 1 36.2905 -32.6761 26.9428 4.10513e+12 -4.21327e+12 -2.22083e+12 9.47862e+12 
12354 1 37.5421 -33.8031 26.9428 4.33056e+12 -3.92448e+12 -1.86508e+12 9.79722e+12 
336 1 -42.2912 -24.4168 26.9428 4.10512e+12 -7.98229e+12 1.54839e+12 -8.25389e+12 
12336 1 -43.7498 -25.2589 26.9428 4.33056e+12 -7.82021e+12 2.03084e+12 -8.53132e+12 
12337 1 -40.8698 -29.6937 26.9428 4.33045e+12 -5.93793e+12 1.49913e+11 -9.36833e+12 
337 1 -39.5073 -28.7037 26.9428 4.10501e+12 -6.16121e+12 -2.71358e+11 -9.06365e+12 
355 1 39.5073 -28.7037 26.9428 4.10501e+12 -6.16121e+12 -2.71358e+11 9.06365e+12 
356 1 42.2912 -24.4168 26.9428 4.10512e+12 -7.98229e+12 1.54839e+12 8.25389e+12 
12355 1 40.8698 -29.6937 26.9428 4.33045e+12 -5.93793e+12 1.49913e+11 9.36833e+12 
12356 1 43.7498 -25.2589 26.9428 4.33056e+12 -7.82021e+12 2.03084e+12 8.53132e+12 
12335 1 -46.1504 -20.5475 26.9428 4.33055e+12 -9.4862e+12 3.69696e+12 -7.3208e+12 
335 1 -44.6118 -19.8624 26.9428 4.10511e+12 -9.59412e+12 3.16033e+12 -7.08272e+12 
357 1 44.6118 -19.8624 26.9428 4.10511e+12 -9.59412e+12 3.16033e+12 7.08272e+12 
12357 1 46.1504 -20.5475 26.9428 4.33055e+12 -9.4862e+12 3.69696e+12 7.3208e+12 
334 1 -46.4436 -15.0904 26.9428 4.10501e+12 -1.09263e+13 4.49367e+12 -5.60167e+12 
12334 1 -48.0454 -15.6109 26.9428 4.33046e+12 -1.08632e+13 5.07514e+12 -5.78999e+12 
358 1 46.4436 -15.0904 26.9428 4.10501e+12 -1.09263e+13 4.49367e+12 5.60167e+12 
12358 1 48.0454 -15.6109 26.9428 4.33046e+12 -1.08632e+13 5.07514e+12 5.78999e+12 
12333 1 -49.414 -10.5033 26.9428 4.33046e+12 -1.1893e+13 6.10482e+12 -4.00653e+12 
333 1 -47.7665 -10.1531 26.9428 4.10501e+12 -1.19226e+13 5.48985e+12 -3.87622e+12 