ITEM: TIMESTEP
18000
ITEM: NUMBER OF ATOMS
24000
ITEM: BOX BOUNDS pp pp pp
-1.3461820342619087e+03 1.3461820342619087e+03
-1.3461820342619087e+03 1.3461820342619087e+03
-1.3461820342619087e+03 1.3461820342619087e+03
ITEM: ATOMS id type x y z c_pte c_csym[1] c_csym[2] c_csym[4] 
12044 1 -10.4959 -49.3797 1.68281 2.97513e+12 4.19513e+12 -1.20032e+13 -3.48797e+12 
45 1 -5.10075 -48.5307 1.6828 2.81617e+12 4.26235e+12 -1.25556e+13 -1.68853e+12 
12045 1 -5.27684 -50.2063 1.68281 2.97505e+12 4.74334e+12 -1.25506e+13 -1.72766e+12 
46 1 4.65949e-05 -48.7981 1.6828 2.81628e+12 4.42967e+12 -1.27243e+13 9.6581e+10 
12046 1 4.88347e-05 -50.4829 1.68281 2.97516e+12 4.91357e+12 -1.27222e+13 1.07776e+11 
47 1 5.10084 -48.5307 1.6828 2.81616e+12 4.22217e+12 -1.25155e+13 1.87746e+12 
12047 1 5.27694 -50.2063 1.68281 2.97506e+12 4.69853e+12 -1.25058e+13 1.93851e+12 
12048 1 10.496 -49.3797 1.68281 2.97512e+12 4.10745e+12 -1.19155e+13 3.68489e+12 
12041 1 -25.2414 -43.7195 1.68281 2.97522e+12 5.97786e+11 -8.40707e+12 -7.58294e+12 
12042 1 -20.5332 -46.1184 1.68281 2.97521e+12 2.07597e+12 -9.88513e+12 -6.48112e+12 
42 1 -19.8479 -44.5793 1.6828 2.81632e+12 1.66342e+12 -9.9586e+12 -6.30955e+12 
12043 1 -15.6 -48.0121 1.68281 2.97512e+12 3.29292e+12 -1.1101e+13 -5.09569e+12 
43 1 -15.0794 -46.4097 1.6828 2.81623e+12 2.84839e+12 -1.11425e+13 -4.96313e+12 
44 1 -10.1456 -47.7317 1.6828 2.81623e+12 3.72743e+12 -1.20216e+13 -3.4002e+12 
48 1 10.1457 -47.7317 1.6828 2.81623e+12 3.64886e+12 -1.1943e+13 3.57665e+12 
49 1 15.0795 -46.4097 1.6828 2.81623e+12 2.73486e+12 -1.10289e+13 5.1194e+12 
50 1 19.848 -44.5792 1.6828 2.81633e+12 1.51988e+12 -9.81506e+12 6.4388e+12 
12049 1 15.6001 -48.012 1.68281 2.97512e+12 3.16622e+12 -1.09743e+13 5.27009e+12 
12050 1 20.5333 -46.1184 1.68281 2.97521e+12 1.91578e+12 -9.72494e+12 6.62535e+12 
12051 1 25.2415 -43.7194 1.68281 2.97522e+12 4.11111e+11 -8.22039e+12 7.69072e+12 
12039 1 -33.7796 -37.5161 1.68281 2.97523e+12 -2.87581e+12 -4.93365e+12 -8.75874e+12 
12040 1 -29.673 -40.8415 1.68281 2.97511e+12 -1.07672e+12 -6.73124e+12 -8.35272e+12 
40 1 -28.6827 -39.4785 1.6828 2.81623e+12 -1.40484e+12 -6.88914e+12 -8.12704e+12 
41 1 -24.399 -42.2604 1.6828 2.81634e+12 2.24613e+11 -8.51991e+12 -7.37989e+12 
51 1 24.3991 -42.2603 1.6828 2.81634e+12 5.73312e+10 -8.35263e+12 7.47647e+12 
12052 1 29.6731 -40.8415 1.68281 2.97511e+12 -1.28173e+12 -6.52622e+12 8.41933e+12 
52 1 28.6828 -39.4784 1.6828 2.81623e+12 -1.58854e+12 -6.70544e+12 8.18673e+12 
12053 1 33.7797 -37.516 1.68281 2.97523e+12 -3.09019e+12 -4.71929e+12 8.78127e+12 
38 1 -36.264 -32.6523 1.6828 2.81634e+12 -4.94825e+12 -3.34723e+12 -8.54049e+12 
12038 1 -37.516 -33.7797 1.68281 2.97523e+12 -4.71929e+12 -3.09019e+12 -8.78127e+12 
39 1 -32.6522 -36.2641 1.6828 2.81635e+12 -3.15513e+12 -5.14035e+12 -8.5203e+12 
53 1 32.6523 -36.264 1.6828 2.81634e+12 -3.34723e+12 -4.94825e+12 8.54049e+12 
54 1 36.2641 -32.6522 1.6828 2.81635e+12 -5.14035e+12 -3.15513e+12 8.5203e+12 
12054 1 37.5161 -33.7796 1.68281 2.97523e+12 -4.93365e+12 -2.87581e+12 8.75874e+12 
36 1 -42.2603 -24.3991 1.6828 2.81634e+12 -8.35263e+12 5.73312e+10 -7.47647e+12 
12036 1 -43.7194 -25.2415 1.68281 2.97522e+12 -8.22039e+12 4.11111e+11 -7.69072e+12 
12037 1 -40.8415 -29.6731 1.68281 2.97511e+12 -6.52622e+12 -1.28173e+12 -8.41933e+12 
37 1 -39.4784 -28.6828 1.6828 2.81623e+12 -6.70544e+12 -1.58854e+12 -8.18673e+12 
55 1 39.4785 -28.6827 1.6828 2.81623e+12 -6.88914e+12 -1.40484e+12 8.12704e+12 
56 1 42.2604 -24.399 1.6828 2.81634e+12 -8.51991e+12 2.24613e+11 7.37989e+12 
12055 1 40.8415 -29.673 1.68281 2.97511e+12 -6.73124e+12 -1.07672e+12 8.35272e+12 
12056 1 43.7195 -25.2414 1.68281 2.97522e+12 -8.40707e+12 5.97786e+11 7.58294e+12 
12035 1 -46.1184 -20.5333 1.68281 2.97521e+12 -9.72494e+12 1.91578e+12 -6.62535e+12 
35 1 -44.5792 -19.848 1.6828 2.81633e+12 -9.81506e+12 1.51988e+12 -6.4388e+12 
57 1 44.5793 -19.8479 1.6828 2.81632e+12 -9.9586e+12 1.66342e+12 6.30955e+12 
12057 1 46.1184 -20.5332 1.68281 2.97521e+12 -9.88513e+12 2.07597e+12 6.48112e+12 
34 1 -46.4097 -15.0795 1.6828 2.81623e+12 -1.10289e+13 2.73486e+12 -5.1194e+12 
12034 1 -48.012 -15.6001 1.68281 2.97512e+12 -1.09743e+13 3.16622e+12 -5.27009e+12 
58 1 46.4097 -15.0794 1.6828 2.81623e+12 -1.11425e+13 2.84839e+12 4.96313e+12 
12058 1 48.0121 -15.6 1.68281 2.97512e+12 -1.1101e+13 3.29292e+12 5.09569e+12 
12033 1 -49.3797 -10.496 1.68281 2.97512e+12 -1.19155e+13 4.10745e+12 -3.68489e+12 
33 1 -47.7317 -10.1457 1.6828 2.81623e+12 -1.1943e+13 3.64886e+12 -3.57665e+12 
12059 1 49.3797 -10.4959 1.68281 2.97513e+12 -1.20032e+13 4.19513e+12 3.48797e+12 
59 1 47.7317 -10.1456 1.6828 2.81623e+12 -1.20216e+13 3.72743e+12 3.4002e+12 
32 1 -48.5307 -5.10084 1.6828 2.81616e+12 -1.25155e+13 4.22217e+12 -1.87746e+12 
12032 1 -50.2063 -5.27694 1.68281 2.97506e+12 -1.25058e+13 4.69853e+12 -1.93851e+12 
31 1 -48.7981 -4.65949e-05 1.6828 2.81628e+12 -1.27243e+13 4.42967e+12 -9.6581e+10 
12031 1 -50.4829 -4.88347e-05 1.68281 2.97516e+12 -1.27222e+13 4.91357e+12 -1.07776e+11 
60 1 48.5307 -5.10075 1.6828 2.81617e+12 -1.25556e+13 4.26235e+12 1.68853e+12 
12060 1 50.2063 -5.27684 1.68281 2.97505e+12 -1.25506e+13 4.74334e+12 1.72766e+12 
12104 1 -10.496 -49.3797 6.73091 4.31666e+12 6.09192e+12 -1.18662e+13 -3.9977e+12 
12164 1 -10.496 -49.3797 11.7791 4.31673e+12 6.09198e+12 -1.18662e+13 -3.99772e+12 
105 1 -5.10079 -48.5307 6.73091 4.09141e+12 6.09169e+12 -1.25102e+13 -1.97685e+12 
12105 1 -5.27689 -50.2063 6.73091 4.31659e+12 6.72689e+12 -1.25004e+13 -2.04331e+12 
165 1 -5.10079 -48.5307 11.7791 4.09147e+12 6.09174e+12 -1.25102e+13 -1.97686e+12 
12165 1 -5.27689 -50.2063 11.7791 4.31665e+12 6.72695e+12 -1.25004e+13 -2.04332e+12 
106 1 -2.27374e-13 -48.7981 6.73091 4.09153e+12 6.29948e+12 -1.27193e+13 4.47522e+06 
12106 1 -2.27374e-13 -50.4829 6.73091 4.31669e+12 6.94162e+12 -1.27165e+13 4.90132e+06 
166 1 -2.27374e-13 -48.7981 11.7791 4.09159e+12 6.29953e+12 -1.27193e+13 341.466 
12166 1 -2.27374e-13 -50.4829 11.7791 4.31676e+12 6.94167e+12 -1.27165e+13 -229.694 
107 1 5.10079 -48.5307 6.73091 4.09141e+12 6.09169e+12 -1.25102e+13 1.97686e+12 
12107 1 5.27689 -50.2063 6.73091 4.31659e+12 6.72689e+12 -1.25004e+13 2.04332e+12 
167 1 5.10079 -48.5307 11.7791 4.09147e+12 6.09174e+12 -1.25102e+13 1.97686e+12 
12167 1 5.27689 -50.2063 11.7791 4.31665e+12 6.72695e+12 -1.25004e+13 2.04332e+12 
12108 1 10.496 -49.3797 6.73091 4.31666e+12 6.09192e+12 -1.18662e+13 3.99771e+12 
12168 1 10.496 -49.3797 11.7791 4.31673e+12 6.09198e+12 -1.18662e+13 3.99772e+12 
12101 1 -25.2414 -43.7194 6.73091 4.31676e+12 2.02693e+12 -7.80242e+12 -8.51252e+12 
12161 1 -25.2414 -43.7194 11.7791 4.31682e+12 2.02696e+12 -7.80241e+12 -8.51254e+12 
12102 1 -20.5332 -46.1184 6.73091 4.31675e+12 3.68937e+12 -9.46474e+12 -7.30467e+12 
102 1 -19.848 -44.5792 6.73091 4.09157e+12 3.15296e+12 -9.57334e+12 -7.06709e+12 
12103 1 -15.6001 -48.0121 6.73091 4.31666e+12 5.06451e+12 -1.08388e+13 -5.77723e+12 
12162 1 -20.5332 -46.1184 11.7791 4.31681e+12 3.68941e+12 -9.46473e+12 -7.30469e+12 
162 1 -19.848 -44.5792 11.7791 4.09163e+12 3.153e+12 -9.57333e+12 -7.06711e+12 
12163 1 -15.6001 -48.0121 11.7791 4.31672e+12 5.06456e+12 -1.08388e+13 -5.77725e+12 
103 1 -15.0794 -46.4097 6.73091 4.09147e+12 4.48335e+12 -1.09026e+13 -5.58931e+12 
104 1 -10.1457 -47.7317 6.73091 4.09147e+12 5.47733e+12 -1.18967e+13 -3.86766e+12 
163 1 -15.0794 -46.4097 11.7791 4.09153e+12 4.4834e+12 -1.09026e+13 -5.58933e+12 
164 1 -10.1457 -47.7317 11.7791 4.09153e+12 5.47738e+12 -1.18967e+13 -3.86768e+12 
108 1 10.1457 -47.7317 6.73091 4.09147e+12 5.47733e+12 -1.18967e+13 3.86767e+12 
109 1 15.0794 -46.4097 6.73091 4.09147e+12 4.48335e+12 -1.09026e+13 5.58932e+12 
168 1 10.1457 -47.7317 11.7791 4.09153e+12 5.47738e+12 -1.18967e+13 3.86768e+12 
169 1 15.0794 -46.4097 11.7791 4.09153e+12 4.4834e+12 -1.09026e+13 5.58933e+12 
110 1 19.848 -44.5792 6.73091 4.09157e+12 3.15295e+12 -9.57334e+12 7.06709e+12 
12109 1 15.6001 -48.0121 6.73091 4.31666e+12 5.0645e+12 -1.08388e+13 5.77724e+12 
12110 1 20.5332 -46.1184 6.73091 4.31675e+12 3.68936e+12 -9.46474e+12 7.30468e+12 
170 1 19.848 -44.5792 11.7791 4.09163e+12 3.153e+12 -9.57333e+12 7.06711e+12 
12169 1 15.6001 -48.0121 11.7791 4.31672e+12 5.06456e+12 -1.08388e+13 5.77725e+12 
12170 1 20.5332 -46.1184 11.7791 4.31681e+12 3.68941e+12 -9.46473e+12 7.30469e+12 
12111 1 25.2414 -43.7194 6.73091 4.31676e+12 2.02692e+12 -7.80242e+12 8.51252e+12 
12171 1 25.2414 -43.7194 11.7791 4.31682e+12 2.02696e+12 -7.80241e+12 8.51254e+12 
12099 1 -33.7796 -37.5161 6.73091 4.31676e+12 -1.86041e+12 -3.91528e+12 -9.77563e+12 
12159 1 -33.7796 -37.5161 11.7791 4.31683e+12 -1.86039e+12 -3.91525e+12 -9.77565e+12 
12100 1 -29.6731 -40.8415 6.73091 4.31665e+12 1.50135e+11 -5.92431e+12 -9.34769e+12 
100 1 -28.6828 -39.4785 6.73091 4.09147e+12 -2.71158e+11 -6.14803e+12 -9.04365e+12 
12160 1 -29.6731 -40.8415 11.7791 4.31672e+12 1.50167e+11 -5.92428e+12 -9.34772e+12 
160 1 -28.6828 -39.4785 11.7791 4.09153e+12 -2.71128e+11 -6.14801e+12 -9.04368e+12 
101 1 -24.399 -42.2604 6.73091 4.09158e+12 1.54458e+12 -7.96508e+12 -8.23567e+12 
161 1 -24.399 -42.2604 11.7791 4.09164e+12 1.54461e+12 -7.96506e+12 -8.23569e+12 
111 1 24.399 -42.2604 6.73091 4.09158e+12 1.54457e+12 -7.96507e+12 8.23567e+12 
171 1 24.399 -42.2604 11.7791 4.09164e+12 1.54461e+12 -7.96506e+12 8.23569e+12 
12112 1 29.6731 -40.8415 6.73091 4.31665e+12 1.50126e+11 -5.9243e+12 9.3477e+12 
112 1 28.6828 -39.4785 6.73091 4.09147e+12 -2.71167e+11 -6.14802e+12 9.04366e+12 
12172 1 29.6731 -40.8415 11.7791 4.31672e+12 1.50167e+11 -5.92428e+12 9.34772e+12 
172 1 28.6828 -39.4785 11.7791 4.09153e+12 -2.71128e+11 -6.14801e+12 9.04368e+12 
12113 1 33.7796 -37.5161 6.73091 4.31676e+12 -1.86042e+12 -3.91527e+12 9.77563e+12 
12173 1 33.7796 -37.5161 11.7791 4.31683e+12 -1.86039e+12 -3.91525e+12 9.77565e+12 
98 1 -36.264 -32.6523 6.73091 4.09159e+12 -4.20436e+12 -2.21633e+12 -9.4577e+12 
12098 1 -37.5161 -33.7796 6.73091 4.31676e+12 -3.91527e+12 -1.86042e+12 -9.77563e+12 
158 1 -36.264 -32.6523 11.7791 4.09165e+12 -4.20435e+12 -2.21629e+12 -9.45772e+12 
12158 1 -37.5161 -33.7796 11.7791 4.31683e+12 -3.91525e+12 -1.86039e+12 -9.77565e+12 
99 1 -32.6523 -36.264 6.73091 4.09159e+12 -2.21632e+12 -4.20437e+12 -9.45769e+12 
159 1 -32.6523 -36.264 11.7791 4.09165e+12 -2.21629e+12 -4.20435e+12 -9.45772e+12 
113 1 32.6523 -36.264 6.73091 4.09159e+12 -2.21633e+12 -4.20436e+12 9.4577e+12 
173 1 32.6523 -36.264 11.7791 4.09165e+12 -2.21629e+12 -4.20435e+12 9.45772e+12 
114 1 36.264 -32.6523 6.73091 4.09159e+12 -4.20437e+12 -2.21632e+12 9.45769e+12 
12114 1 37.5161 -33.7796 6.73091 4.31676e+12 -3.91528e+12 -1.86041e+12 9.77563e+12 
174 1 36.264 -32.6523 11.7791 4.09165e+12 -4.20435e+12 -2.21629e+12 9.45772e+12 
12174 1 37.5161 -33.7796 11.7791 4.31683e+12 -3.91525e+12 -1.86039e+12 9.77565e+12 
96 1 -42.2604 -24.399 6.73091 4.09158e+12 -7.96507e+12 1.54457e+12 -8.23567e+12 
12096 1 -43.7194 -25.2414 6.73091 4.31676e+12 -7.80242e+12 2.02692e+12 -8.51252e+12 
12097 1 -40.8415 -29.6731 6.73091 4.31665e+12 -5.9243e+12 1.50126e+11 -9.3477e+12 
97 1 -39.4785 -28.6828 6.73091 4.09147e+12 -6.14802e+12 -2.71167e+11 -9.04366e+12 
156 1 -42.2604 -24.399 11.7791 4.09164e+12 -7.96506e+12 1.54461e+12 -8.23569e+12 
12156 1 -43.7194 -25.2414 11.7791 4.31682e+12 -7.80241e+12 2.02696e+12 -8.51254e+12 
12157 1 -40.8415 -29.6731 11.7791 4.31672e+12 -5.92428e+12 1.50167e+11 -9.34772e+12 
157 1 -39.4785 -28.6828 11.7791 4.09153e+12 -6.14801e+12 -2.71128e+11 -9.04368e+12 
115 1 39.4785 -28.6828 6.73091 4.09147e+12 -6.14803e+12 -2.71158e+11 9.04365e+12 
116 1 42.2604 -24.399 6.73091 4.09158e+12 -7.96508e+12 1.54458e+12 8.23567e+12 
12115 1 40.8415 -29.6731 6.73091 4.31665e+12 -5.92431e+12 1.50135e+11 9.34769e+12 
12116 1 43.7194 -25.2414 6.73091 4.31676e+12 -7.80242e+12 2.02693e+12 8.51252e+12 
175 1 39.4785 -28.6828 11.7791 4.09153e+12 -6.14801e+12 -2.71128e+11 9.04368e+12 
176 1 42.2604 -24.399 11.7791 4.09164e+12 -7.96506e+12 1.54461e+12 8.23569e+12 
12175 1 40.8415 -29.6731 11.7791 4.31672e+12 -5.92428e+12 1.50167e+11 9.34772e+12 
12176 1 43.7194 -25.2414 11.7791 4.31682e+12 -7.80241e+12 2.02696e+12 8.51254e+12 
12095 1 -46.1184 -20.5332 6.73091 4.31675e+12 -9.46474e+12 3.68936e+12 -7.30468e+12 
12155 1 -46.1184 -20.5332 11.7791 4.31681e+12 -9.46473e+12 3.68941e+12 -7.30469e+12 
95 1 -44.5792 -19.848 6.73091 4.09157e+12 -9.57334e+12 3.15295e+12 -7.06709e+12 
155 1 -44.5792 -19.848 11.7791 4.09163e+12 -9.57333e+12 3.153e+12 -7.06711e+12 
117 1 44.5792 -19.848 6.73091 4.09157e+12 -9.57334e+12 3.15296e+12 7.06709e+12 
177 1 44.5792 -19.848 11.7791 4.09163e+12 -9.57333e+12 3.153e+12 7.06711e+12 
12117 1 46.1184 -20.5332 6.73091 4.31675e+12 -9.46474e+12 3.68937e+12 7.30467e+12 
12177 1 46.1184 -20.5332 11.7791 4.31681e+12 -9.46473e+12 3.68941e+12 7.30469e+12 
94 1 -46.4097 -15.0794 6.73091 4.09147e+12 -1.09026e+13 4.48335e+12 -5.58932e+12 
12094 1 -48.0121 -15.6001 6.73091 4.31666e+12 -1.08388e+13 5.0645e+12 -5.77724e+12 
154 1 -46.4097 -15.0794 11.7791 4.09153e+12 -1.09026e+13 4.4834e+12 -5.58933e+12 
12154 1 -48.0121 -15.6001 11.7791 4.31672e+12 -1.08388e+13 5.06456e+12 -5.77725e+12 
118 1 46.4097 -15.0794 6.73091 4.09147e+12 -1.09026e+13 4.48335e+12 5.58931e+12 
12118 1 48.0121 -15.6001 6.73091 4.31666e+12 -1.08388e+13 5.06451e+12 5.77723e+12 
178 1 46.4097 -15.0794 11.7791 4.09153e+12 -1.09026e+13 4.4834e+12 5.58933e+12 
12178 1 48.0121 -15.6001 11.7791 4.31672e+12 -1.08388e+13 5.06456e+12 5.77725e+12 
12093 1 -49.3797 -10.496 6.73091 4.31666e+12 -1.18662e+13 6.09192e+12 -3.99771e+12 
93 1 -47.7317 -10.1457 6.73091 4.09147e+12 -1.18967e+13 5.47733e+12 -3.86767e+12 
12153 1 -49.3797 -10.496 11.7791 4.31673e+12 -1.18662e+13 6.09198e+12 -3.99772e+12 
153 1 -47.7317 -10.1457 11.7791 4.09153e+12 -1.18967e+13 5.47738e+12 -3.86768e+12 
12119 1 49.3797 -10.496 6.73091 4.31666e+12 -1.18662e+13 6.09192e+12 3.9977e+12 
119 1 47.7317 -10.1457 6.73091 4.09147e+12 -1.18967e+13 5.47733e+12 3.86766e+12 
12179 1 49.3797 -10.496 11.7791 4.31673e+12 -1.18662e+13 6.09198e+12 3.99772e+12 
179 1 47.7317 -10.1457 11.7791 4.09153e+12 -1.18967e+13 5.47738e+12 3.86768e+12 
92 1 -48.5307 -5.10079 6.73091 4.09141e+12 -1.25102e+13 6.09169e+12 -1.97686e+12 
12092 1 -50.2063 -5.27689 6.73091 4.31659e+12 -1.25004e+13 6.72689e+12 -2.04332e+12 
152 1 -48.5307 -5.10079 11.7791 4.09147e+12 -1.25102e+13 6.09174e+12 -1.97686e+12 
12152 1 -50.2063 -5.27689 11.7791 4.31665e+12 -1.25004e+13 6.72695e+12 -2.04332e+12 
91 1 -48.7981 -2.27374e-13 6.73091 4.09153e+12 -1.27193e+13 6.29948e+12 -4.47569e+06 
151 1 -48.7981 -2.27374e-13 11.7791 4.09159e+12 -1.27193e+13 6.29953e+12 245.315 
12151 1 -50.4829 -2.27374e-13 11.7791 4.31676e+12 -1.27165e+13 6.94167e+12 -34.6468 
12091 1 -50.4829 -2.27374e-13 6.73091 4.31669e+12 -1.27165e+13 6.94162e+12 -4.90175e+06 
120 1 48.5307 -5.10079 6.73091 4.09141e+12 -1.25102e+13 6.09169e+12 1.97685e+12 
12120 1 50.2063 -5.27689 6.73091 4.31659e+12 -1.25004e+13 6.72689e+12 2.04331e+12 
180 1 48.5307 -5.10079 11.7791 4.09147e+12 -1.25102e+13 6.09174e+12 1.97686e+12 
12180 1 50.2063 -5.27689 11.7791 4.31665e+12 -1.25004e+13 6.72695e+12 2.04332e+12 
12061 1 50.4829 -2.27374e-13 6.73091 4.31669e+12 -1.27165e+13 6.94162e+12 -4.90133e+06 
121 1 48.7981 -2.27374e-13 11.7791 4.09159e+12 -1.27193e+13 6.29953e+12 -360.611 
12121 1 50.4829 -2.27374e-13 11.7791 4.31676e+12 -1.27165e+13 6.94167e+12 225.354 
61 1 48.7981 -2.27374e-13 6.73091 4.09153e+12 -1.27193e+13 6.29948e+12 -4.4754e+06 
12224 1 -10.496 -49.3797 16.8273 4.31673e+12 6.09198e+12 -1.18662e+13 -3.99772e+12 
225 1 -5.10079 -48.5307 16.8273 4.09147e+12 6.09174e+12 -1.25102e+13 -1.97686e+12 
12225 1 -5.27689 -50.2063 16.8273 4.31665e+12 6.72695e+12 -1.25004e+13 -2.04332e+12 
226 1 -2.27374e-13 -48.7981 16.8273 4.09159e+12 6.29953e+12 -1.27193e+13 335.275 
12226 1 -2.27374e-13 -50.4829 16.8273 4.31676e+12 6.94167e+12 -1.27165e+13 109.038 
227 1 5.10079 -48.5307 16.8273 4.09147e+12 6.09174e+12 -1.25102e+13 1.97686e+12 
12227 1 5.27689 -50.2063 16.8273 4.31665e+12 6.72695e+12 -1.25004e+13 2.04332e+12 
12228 1 10.496 -49.3797 16.8273 4.31673e+12 6.09198e+12 -1.18662e+13 3.99772e+12 
12221 1 -25.2414 -43.7194 16.8273 4.31682e+12 2.02696e+12 -7.80241e+12 -8.51254e+12 
12222 1 -20.5332 -46.1184 16.8273 4.31681e+12 3.68941e+12 -9.46473e+12 -7.30469e+12 
222 1 -19.848 -44.5792 16.8273 4.09163e+12 3.153e+12 -9.57333e+12 -7.06711e+12 
12223 1 -15.6001 -48.0121 16.8273 4.31672e+12 5.06456e+12 -1.08388e+13 -5.77725e+12 
223 1 -15.0794 -46.4097 16.8273 4.09153e+12 4.4834e+12 -1.09026e+13 -5.58933e+12 
224 1 -10.1457 -47.7317 16.8273 4.09153e+12 5.47738e+12 -1.18967e+13 -3.86768e+12 
228 1 10.1457 -47.7317 16.8273 4.09153e+12 5.47738e+12 -1.18967e+13 3.86768e+12 
229 1 15.0794 -46.4097 16.8273 4.09153e+12 4.4834e+12 -1.09026e+13 5.58933e+12 
230 1 19.848 -44.5792 16.8273 4.09163e+12 3.153e+12 -9.57333e+12 7.06711e+12 
12229 1 15.6001 -48.0121 16.8273 4.31672e+12 5.06456e+12 -1.08388e+13 5.77725e+12 
12230 1 20.5332 -46.1184 16.8273 4.31681e+12 3.68941e+12 -9.46473e+12 7.30469e+12 
12231 1 25.2414 -43.7194 16.8273 4.31682e+12 2.02696e+12 -7.80241e+12 8.51254e+12 
12219 1 -33.7796 -37.5161 16.8273 4.31683e+12 -1.86039e+12 -3.91525e+12 -9.77565e+12 
12220 1 -29.6731 -40.8415 16.8273 4.31672e+12 1.50167e+11 -5.92428e+12 -9.34772e+12 
220 1 -28.6828 -39.4785 16.8273 4.09153e+12 -2.71128e+11 -6.14801e+12 -9.04368e+12 
221 1 -24.399 -42.2604 16.8273 4.09164e+12 1.54461e+12 -7.96506e+12 -8.23569e+12 
231 1 24.399 -42.2604 16.8273 4.09164e+12 1.54461e+12 -7.96506e+12 8.23569e+12 
12232 1 29.6731 -40.8415 16.8273 4.31672e+12 1.50167e+11 -5.92428e+12 9.34772e+12 
232 1 28.6828 -39.4785 16.8273 4.09153e+12 -2.71128e+11 -6.14801e+12 9.04368e+12 
12233 1 33.7796 -37.5161 16.8273 4.31683e+12 -1.86039e+12 -3.91525e+12 9.77565e+12 
218 1 -36.264 -32.6523 16.8273 4.09165e+12 -4.20435e+12 -2.21629e+12 -9.45772e+12 
12218 1 -37.5161 -33.7796 16.8273 4.31683e+12 -3.91525e+12 -1.86039e+12 -9.77565e+12 
219 1 -32.6523 -36.264 16.8273 4.09165e+12 -2.21629e+12 -4.20435e+12 -9.45772e+12 
233 1 32.6523 -36.264 16.8273 4.09165e+12 -2.21629e+12 -4.20435e+12 9.45772e+12 
234 1 36.264 -32.6523 16.8273 4.09165e+12 -4.20435e+12 -2.21629e+12 9.45772e+12 
12234 1 37.5161 -33.7796 16.8273 4.31683e+12 -3.91525e+12 -1.86039e+12 9.77565e+12 
216 1 -42.2604 -24.399 16.8273 4.09164e+12 -7.96506e+12 1.54461e+12 -8.23569e+12 
12216 1 -43.7194 -25.2414 16.8273 4.31682e+12 -7.80241e+12 2.02696e+12 -8.51254e+12 
12217 1 -40.8415 -29.6731 16.8273 4.31672e+12 -5.92428e+12 1.50167e+11 -9.34772e+12 
217 1 -39.4785 -28.6828 16.8273 4.09153e+12 -6.14801e+12 -2.71128e+11 -9.04368e+12 
235 1 39.4785 -28.6828 16.8273 4.09153e+12 -6.14801e+12 -2.71128e+11 9.04368e+12 
236 1 42.2604 -24.399 16.8273 4.09164e+12 -7.96506e+12 1.54461e+12 8.23569e+12 
12235 1 40.8415 -29.6731 16.8273 4.31672e+12 -5.92428e+12 1.50167e+11 9.34772e+12 
12236 1 43.7194 -25.2414 16.8273 4.31682e+12 -7.80241e+12 2.02696e+12 8.51254e+12 
12215 1 -46.1184 -20.5332 16.8273 4.31681e+12 -9.46473e+12 3.68941e+12 -7.30469e+12 
215 1 -44.5792 -19.848 16.8273 4.09163e+12 -9.57333e+12 3.153e+12 -7.06711e+12 
237 1 44.5792 -19.848 16.8273 4.09163e+12 -9.57333e+12 3.153e+12 7.06711e+12 
12237 1 46.1184 -20.5332 16.8273 4.31681e+12 -9.46473e+12 3.68941e+12 7.30469e+12 
214 1 -46.4097 -15.0794 16.8273 4.09153e+12 -1.09026e+13 4.4834e+12 -5.58933e+12 
12214 1 -48.0121 -15.6001 16.8273 4.31672e+12 -1.08388e+13 5.06456e+12 -5.77725e+12 
238 1 46.4097 -15.0794 16.8273 4.09153e+12 -1.09026e+13 4.4834e+12 5.58933e+12 
12238 1 48.0121 -15.6001 16.8273 4.31672e+12 -1.08388e+13 5.06456e+12 5.77725e+12 
12213 1 -49.3797 -10.496 16.8273 4.31673e+12 -1.18662e+13 6.09198e+12 -3.99772e+12 
213 1 -47.7317 -10.1457 16.8273 4.09153e+12 -1.18967e+13 5.47738e+12 -3.86768e+12 
12239 1 49.3797 -10.496 16.8273 4.31673e+12 -1.18662e+13 6.09198e+12 3.99772e+12 
239 1 47.7317 -10.1457 16.8273 4.09153e+12 -1.18967e+13 5.47738e+12 3.86768e+12 
212 1 -48.5307 -5.10079 16.8273 4.09147e+12 -1.25102e+13 6.09174e+12 -1.97686e+12 
12212 1 -50.2063 -5.27689 16.8273 4.31665e+12 -1.25004e+13 6.72695e+12 -2.04332e+12 
211 1 -48.7981 -2.27374e-13 16.8273 4.09159e+12 -1.27193e+13 6.29953e+12 -39.8545 
12211 1 -50.4829 -2.27374e-13 16.8273 4.31676e+12 -1.27165e+13 6.94167e+12 -270.121 
240 1 48.5307 -5.10079 16.8273 4.09147e+12 -1.25102e+13 6.09174e+12 1.97686e+12 
12240 1 50.2063 -5.27689 16.8273 4.31665e+12 -1.25004e+13 6.72695e+12 2.04332e+12 
181 1 48.7981 -2.27374e-13 16.8273 4.09159e+12 -1.27193e+13 6.29953e+12 -282.816 
12181 1 50.4829 -2.27374e-13 16.8273 4.31676e+12 -1.27165e+13 6.94167e+12 -138.961 
12284 1 -10.496 -49.3797 21.8755 4.31673e+12 6.09198e+12 -1.18662e+13 -3.99772e+12 
285 1 -5.10079 -48.5307 21.8755 4.09147e+12 6.09174e+12 -1.25102e+13 -1.97686e+12 
12285 1 -5.27689 -50.2063 21.8755 4.31665e+12 6.72695e+12 -1.25004e+13 -2.04332e+12 
286 1 -2.27374e-13 -48.7981 21.8755 4.09159e+12 6.29953e+12 -1.27193e+13 305.633 
12286 1 -2.27374e-13 -50.4829 21.8755 4.31676e+12 6.94167e+12 -1.27165e+13 -302.35 
287 1 5.10079 -48.5307 21.8755 4.09147e+12 6.09174e+12 -1.25102e+13 1.97686e+12 
12287 1 5.27689 -50.2063 21.8755 4.31665e+12 6.72695e+12 -1.25004e+13 2.04332e+12 
12288 1 10.496 -49.3797 21.8755 4.31673e+12 6.09198e+12 -1.18662e+13 3.99772e+12 
12281 1 -25.2414 -43.7194 21.8755 4.31682e+12 2.02696e+12 -7.80241e+12 -8.51254e+12 
12282 1 -20.5332 -46.1184 21.8755 4.31681e+12 3.68941e+12 -9.46473e+12 -7.30469e+12 
282 1 -19.848 -44.5792 21.8755 4.09163e+12 3.153e+12 -9.57333e+12 -7.06711e+12 
12283 1 -15.6001 -48.0121 21.8755 4.31672e+12 5.06456e+12 -1.08388e+13 -5.77725e+12 
283 1 -15.0794 -46.4097 21.8755 4.09153e+12 4.4834e+12 -1.09026e+13 -5.58933e+12 
284 1 -10.1457 -47.7317 21.8755 4.09153e+12 5.47738e+12 -1.18967e+13 -3.86768e+12 
288 1 10.1457 -47.7317 21.8755 4.09153e+12 5.47738e+12 -1.18967e+13 3.86768e+12 
289 1 15.0794 -46.4097 21.8755 4.09153e+12 4.4834e+12 -1.09026e+13 5.58933e+12 
290 1 19.848 -44.5792 21.8755 4.09163e+12 3.153e+12 -9.57333e+12 7.06711e+12 
12289 1 15.6001 -48.0121 21.8755 4.31672e+12 5.06456e+12 -1.08388e+13 5.77725e+12 
12290 1 20.5332 -46.1184 21.8755 4.31681e+12 3.68941e+12 -9.46473e+12 7.30469e+12 
12291 1 25.2414 -43.7194 21.8755 4.31682e+12 2.02696e+12 -7.80241e+12 8.51254e+12 
12279 1 -33.7796 -37.5161 21.8755 4.31683e+12 -1.86039e+12 -3.91525e+12 -9.77565e+12 
12280 1 -29.6731 -40.8415 21.8755 4.31672e+12 1.50167e+11 -5.92428e+12 -9.34772e+12 
280 1 -28.6828 -39.4785 21.8755 4.09153e+12 -2.71128e+11 -6.14801e+12 -9.04368e+12 
281 1 -24.399 -42.2604 21.8755 4.09164e+12 1.54461e+12 -7.96506e+12 -8.23569e+12 
291 1 24.399 -42.2604 21.8755 4.09164e+12 1.54461e+12 -7.96506e+12 8.23569e+12 
12292 1 29.6731 -40.8415 21.8755 4.31672e+12 1.50167e+11 -5.92428e+12 9.34772e+12 
292 1 28.6828 -39.4785 21.8755 4.09153e+12 -2.71128e+11 -6.14801e+12 9.04368e+12 
12293 1 33.7796 -37.5161 21.8755 4.31683e+12 -1.86039e+12 -3.91525e+12 9.77565e+12 
278 1 -36.264 -32.6523 21.8755 4.09165e+12 -4.20435e+12 -2.21629e+12 -9.45772e+12 
12278 1 -37.5161 -33.7796 21.8755 4.31683e+12 -3.91525e+12 -1.86039e+12 -9.77565e+12 
279 1 -32.6523 -36.264 21.8755 4.09165e+12 -2.21629e+12 -4.20435e+12 -9.45772e+12 
293 1 32.6523 -36.264 21.8755 4.09165e+12 -2.21629e+12 -4.20435e+12 9.45772e+12 
294 1 36.264 -32.6523 21.8755 4.09165e+12 -4.20435e+12 -2.21629e+12 9.45772e+12 
12294 1 37.5161 -33.7796 21.8755 4.31683e+12 -3.91525e+12 -1.86039e+12 9.77565e+12 
276 1 -42.2604 -24.399 21.8755 4.09164e+12 -7.96506e+12 1.54461e+12 -8.23569e+12 
12276 1 -43.7194 -25.2414 21.8755 4.31682e+12 -7.80241e+12 2.02696e+12 -8.51254e+12 
12277 1 -40.8415 -29.6731 21.8755 4.31672e+12 -5.92428e+12 1.50167e+11 -9.34772e+12 
277 1 -39.4785 -28.6828 21.8755 4.09153e+12 -6.14801e+12 -2.71128e+11 -9.04368e+12 
295 1 39.4785 -28.6828 21.8755 4.09153e+12 -6.14801e+12 -2.71128e+11 9.04368e+12 
296 1 42.2604 -24.399 21.8755 4.09164e+12 -7.96506e+12 1.54461e+12 8.23569e+12 
12295 1 40.8415 -29.6731 21.8755 4.31672e+12 -5.92428e+12 1.50167e+11 9.34772e+12 
12296 1 43.7194 -25.2414 21.8755 4.31682e+12 -7.80241e+12 2.02696e+12 8.51254e+12 
12275 1 -46.1184 -20.5332 21.8755 4.31681e+12 -9.46473e+12 3.68941e+12 -7.30469e+12 
275 1 -44.5792 -19.848 21.8755 4.09163e+12 -9.57333e+12 3.153e+12 -7.06711e+12 
297 1 44.5792 -19.848 21.8755 4.09163e+12 -9.57333e+12 3.153e+12 7.06711e+12 
12297 1 46.1184 -20.5332 21.8755 4.31681e+12 -9.46473e+12 3.68941e+12 7.30469e+12 
274 1 -46.4097 -15.0794 21.8755 4.09153e+12 -1.09026e+13 4.4834e+12 -5.58933e+12 
12274 1 -48.0121 -15.6001 21.8755 4.31672e+12 -1.08388e+13 5.06456e+12 -5.77725e+12 
298 1 46.4097 -15.0794 21.8755 4.09153e+12 -1.09026e+13 4.4834e+12 5.58933e+12 
12298 1 48.0121 -15.6001 21.8755 4.31672e+12 -1.08388e+13 5.06456e+12 5.77725e+12 
12273 1 -49.3797 -10.496 21.8755 4.31673e+12 -1.18662e+13 6.09198e+12 -3.99772e+12 
273 1 -47.7317 -10.1457 21.8755 4.09153e+12 -1.18967e+13 5.47738e+12 -3.86768e+12 
12299 1 49.3797 -10.496 21.8755 4.31673e+12 -1.18662e+13 6.09198e+12 3.99772e+12 
299 1 47.7317 -10.1457 21.8755 4.09153e+12 -1.18967e+13 5.47738e+12 3.86768e+12 
272 1 -48.5307 -5.10079 21.8755 4.09147e+12 -1.25102e+13 6.09174e+12 -1.97686e+12 
12272 1 -50.2063 -5.27689 21.8755 4.31665e+12 -1.25004e+13 6.72695e+12 -2.04332e+12 
271 1 -48.7981 -2.27374e-13 21.8755 4.09159e+12 -1.27193e+13 6.29953e+12 -64.1213 
12271 1 -50.4829 -2.27374e-13 21.8755 4.31676e+12 -1.27165e+13 6.94167e+12 -248.158 
300 1 48.5307 -5.10079 21.8755 4.09147e+12 -1.25102e+13 6.09174e+12 1.97686e+12 
12300 1 50.2063 -5.27689 21.8755 4.31665e+12 -1.25004e+13 6.72695e+12 2.04332e+12 
241 1 48.7981 -2.27374e-13 21.8755 4.09159e+12 -1.27193e+13 6.29953e+12 185.614 
12241 1 50.4829 -2.27374e-13 21.8755 4.31676e+12 -1.27165e+13 6.94167e+12 328.361 
12344 1 -10.496 -49.3797 26.9236 4.31673e+12 6.09198e+12 -1.18662e+13 -3.99772e+12 
345 1 -5.10079 -48.5307 26.9236 4.09147e+12 6.09174e+12 -1.25102e+13 -1.97686e+12 
12345 1 -5.27689 -50.2063 26.9236 4.31665e+12 6.72695e+12 -1.25004e+13 -2.04332e+12 
346 1 -2.27374e-13 -48.7981 26.9236 4.09159e+12 6.29953e+12 -1.27193e+13 -76.9361 
12346 1 -2.27374e-13 -50.4829 26.9236 4.31676e+12 6.94167e+12 -1.27165e+13 187.082 
347 1 5.10079 -48.5307 26.9236 4.09147e+12 6.09174e+12 -1.25102e+13 1.97686e+12 
12347 1 5.27689 -50.2063 26.9236 4.31665e+12 6.72695e+12 -1.25004e+13 2.04332e+12 
12348 1 10.496 -49.3797 26.9236 4.31673e+12 6.09198e+12 -1.18662e+13 3.99772e+12 
12341 1 -25.2414 -43.7194 26.9236 4.31682e+12 2.02696e+12 -7.80241e+12 -8.51254e+12 
12342 1 -20.5332 -46.1184 26.9236 4.31681e+12 3.68941e+12 -9.46473e+12 -7.30469e+12 
342 1 -19.848 -44.5792 26.9236 4.09163e+12 3.153e+12 -9.57333e+12 -7.06711e+12 
12343 1 -15.6001 -48.0121 26.9236 4.31672e+12 5.06456e+12 -1.08388e+13 -5.77725e+12 
343 1 -15.0794 -46.4097 26.9236 4.09153e+12 4.4834e+12 -1.09026e+13 -5.58933e+12 
344 1 -10.1457 -47.7317 26.9236 4.09153e+12 5.47738e+12 -1.18967e+13 -3.86768e+12 
348 1 10.1457 -47.7317 26.9236 4.09153e+12 5.47738e+12 -1.18967e+13 3.86768e+12 
349 1 15.0794 -46.4097 26.9236 4.09153e+12 4.4834e+12 -1.09026e+13 5.58933e+12 
350 1 19.848 -44.5792 26.9236 4.09163e+12 3.153e+12 -9.57333e+12 7.06711e+12 
12349 1 15.6001 -48.0121 26.9236 4.31672e+12 5.06456e+12 -1.08388e+13 5.77725e+12 
12350 1 20.5332 -46.1184 26.9236 4.31681e+12 3.68941e+12 -9.46473e+12 7.30469e+12 
12351 1 25.2414 -43.7194 26.9236 4.31682e+12 2.02696e+12 -7.80241e+12 8.51254e+12 
12339 1 -33.7796 -37.5161 26.9236 4.31683e+12 -1.86039e+12 -3.91525e+12 -9.77565e+12 
12340 1 -29.6731 -40.8415 26.9236 4.31672e+12 1.50167e+11 -5.92428e+12 -9.34772e+12 
340 1 -28.6828 -39.4785 26.9236 4.09153e+12 -2.71128e+11 -6.14801e+12 -9.04368e+12 
341 1 -24.399 -42.2604 26.9236 4.09164e+12 1.54461e+12 -7.96506e+12 -8.23569e+12 
351 1 24.399 -42.2604 26.9236 4.09164e+12 1.54461e+12 -7.96506e+12 8.23569e+12 
12352 1 29.6731 -40.8415 26.9236 4.31672e+12 1.50167e+11 -5.92428e+12 9.34772e+12 
352 1 28.6828 -39.4785 26.9236 4.09153e+12 -2.71128e+11 -6.14801e+12 9.04368e+12 
12353 1 33.7796 -37.5161 26.9236 4.31683e+12 -1.86039e+12 -3.91525e+12 9.77565e+12 
338 1 -36.264 -32.6523 26.9236 4.09165e+12 -4.20435e+12 -2.21629e+12 -9.45772e+12 
12338 1 -37.5161 -33.7796 26.9236 4.31683e+12 -3.91525e+12 -1.86039e+12 -9.77565e+12 
339 1 -32.6523 -36.264 26.9236 4.09165e+12 -2.21629e+12 -4.20435e+12 -9.45772e+12 
353 1 32.6523 -36.264 26.9236 4.09165e+12 -2.21629e+12 -4.20435e+12 9.45772e+12 
354 1 36.264 -32.6523 26.9236 4.09165e+12 -4.20435e+12 -2.21629e+12 9.45772e+12 
12354 1 37.5161 -33.7796 26.9236 4.31683e+12 -3.91525e+12 -1.86039e+12 9.77565e+12 
336 1 -42.2604 -24.399 26.9236 4.09164e+12 -7.96506e+12 1.54461e+12 -8.23569e+12 
12336 1 -43.7194 -25.2414 26.9236 4.31682e+12 -7.80241e+12 2.02696e+12 -8.51254e+12 
12337 1 -40.8415 -29.6731 26.9236 4.31672e+12 -5.92428e+12 1.50167e+11 -9.34772e+12 
337 1 -39.4785 -28.6828 26.9236 4.09153e+12 -6.14801e+12 -2.71128e+11 -9.04368e+12 
355 1 39.4785 -28.6828 26.9236 4.09153e+12 -6.14801e+12 -2.71128e+11 9.04368e+12 
356 1 42.2604 -24.399 26.9236 4.09164e+12 -7.96506e+12 1.54461e+12 8.23569e+12 
12355 1 40.8415 -29.6731 26.9236 4.31672e+12 -5.92428e+12 1.50167e+11 9.34772e+12 
12356 1 43.7194 -25.2414 26.9236 4.31682e+12 -7.80241e+12 2.02696e+12 8.51254e+12 
12335 1 -46.1184 -20.5332 26.9236 4.31681e+12 -9.46473e+12 3.68941e+12 -7.30469e+12 
335 1 -44.5792 -19.848 26.9236 4.09163e+12 -9.57333e+12 3.153e+12 -7.06711e+12 
357 1 44.5792 -19.848 26.9236 4.09163e+12 -9.57333e+12 3.153e+12 7.06711e+12 
12357 1 46.1184 -20.5332 26.9236 4.31681e+12 -9.46473e+12 3.68941e+12 7.30469e+12 
334 1 -46.4097 -15.0794 26.9236 4.09153e+12 -1.09026e+13 4.4834e+12 -5.58933e+12 
12334 1 -48.0121 -15.6001 26.9236 4.31672e+12 -1.08388e+13 5.06456e+12 -5.77725e+12 
358 1 46.4097 -15.0794 26.9236 4.09153e+12 -1.09026e+13 4.4834e+12 5.58933e+12 
12358 1 48.0121 -15.6001 26.9236 4.31672e+12 -1.08388e+13 5.06456e+12 5.77725e+12 
12333 1 -49.3797 -10.496 26.9236 4.31673e+12 -1.18662e+13 6.09198e+12 -3.99772e+12 