ITEM: TIMESTEP
4000
ITEM: NUMBER OF ATOMS
24000
ITEM: BOX BOUNDS pp pp pp
-1.3472134909850035e+03 1.3472134909850035e+03
-1.3472134909850035e+03 1.3472134909850035e+03
-1.3472134909850035e+03 1.3472134909850035e+03
ITEM: ATOMS id type x y z c_pte c_csym[1] c_csym[2] c_csym[4] 
12044 1 -10.5038 -49.4166 1.68402 2.9861e+12 4.20459e+12 -1.20316e+13 -3.49769e+12 
45 1 -5.1048 -48.5689 1.68402 2.82693e+12 4.27363e+12 -1.25855e+13 -1.69134e+12 
12045 1 -5.28083 -50.2438 1.68402 2.98602e+12 4.75441e+12 -1.25806e+13 -1.73323e+12 
46 1 2.53548e-06 -48.8364 1.68402 2.82705e+12 4.44109e+12 -1.27543e+13 9.8115e+10 
12046 1 2.65492e-06 -50.5206 1.68402 2.98613e+12 4.92535e+12 -1.27529e+13 1.06592e+11 
47 1 5.10481 -48.5689 1.68402 2.82693e+12 4.23282e+12 -1.25447e+13 1.88326e+12 
12047 1 5.28083 -50.2438 1.68402 2.98603e+12 4.7101e+12 -1.25363e+13 1.94177e+12 
12048 1 10.5038 -49.4166 1.68402 2.9861e+12 4.11787e+12 -1.19449e+13 3.69245e+12 
12041 1 -25.2603 -43.7521 1.68402 2.98619e+12 5.97915e+11 -8.42615e+12 -7.60194e+12 
12042 1 -20.5486 -46.1528 1.68402 2.98619e+12 2.07984e+12 -9.90794e+12 -6.4977e+12 
42 1 -19.8636 -44.6143 1.68402 2.82709e+12 1.66912e+12 -9.98293e+12 -6.32394e+12 
12043 1 -15.6117 -48.0479 1.68402 2.98609e+12 3.29995e+12 -1.11269e+13 -5.10914e+12 
43 1 -15.0913 -46.4462 1.68402 2.82699e+12 2.85675e+12 -1.11694e+13 -4.97407e+12 
44 1 -10.1537 -47.7692 1.68402 2.82699e+12 3.73768e+12 -1.20504e+13 -3.40723e+12 
48 1 10.1537 -47.7692 1.68402 2.82699e+12 3.65787e+12 -1.19706e+13 3.58648e+12 
49 1 15.0913 -46.4462 1.68402 2.82699e+12 2.74142e+12 -1.10541e+13 5.13282e+12 
50 1 19.8636 -44.6143 1.68402 2.82709e+12 1.5233e+12 -9.83711e+12 6.45523e+12 
12049 1 15.6117 -48.0479 1.68402 2.98609e+12 3.17464e+12 -1.10016e+13 5.28162e+12 
12050 1 20.5486 -46.1528 1.68402 2.98618e+12 1.92141e+12 -9.74952e+12 6.64035e+12 
12051 1 25.2603 -43.7521 1.68402 2.9862e+12 4.13291e+11 -8.24152e+12 7.70853e+12 
12039 1 -33.8049 -37.5441 1.68402 2.98621e+12 -2.88424e+12 -4.94417e+12 -8.78001e+12 
12040 1 -29.6953 -40.872 1.68402 2.98609e+12 -1.08075e+12 -6.74614e+12 -8.37329e+12 
40 1 -28.7053 -39.5095 1.68402 2.82699e+12 -1.40628e+12 -6.9063e+12 -8.14627e+12 
41 1 -24.4182 -42.2936 1.68402 2.8271e+12 2.26996e+11 -8.54092e+12 -7.39708e+12 
51 1 24.4182 -42.2936 1.68402 2.8271e+12 5.70568e+10 -8.37098e+12 7.49519e+12 
12052 1 29.6953 -40.872 1.68402 2.98609e+12 -1.28351e+12 -6.54338e+12 8.43917e+12 
52 1 28.7053 -39.5095 1.68402 2.82699e+12 -1.59289e+12 -6.71969e+12 8.20691e+12 
12053 1 33.8049 -37.5441 1.68402 2.9862e+12 -3.09627e+12 -4.73216e+12 8.80229e+12 
38 1 -36.2925 -32.678 1.68402 2.82711e+12 -4.95821e+12 -3.35591e+12 -8.56127e+12 
12038 1 -37.5441 -33.8049 1.68402 2.9862e+12 -4.73216e+12 -3.09627e+12 -8.80229e+12 
39 1 -32.6779 -36.2925 1.68402 2.82711e+12 -3.16075e+12 -5.15335e+12 -8.54076e+12 
53 1 32.678 -36.2925 1.68402 2.82711e+12 -3.35591e+12 -4.95821e+12 8.56127e+12 
54 1 36.2925 -32.6779 1.68402 2.82711e+12 -5.15335e+12 -3.16075e+12 8.54076e+12 
12054 1 37.5441 -33.8049 1.68402 2.98621e+12 -4.94417e+12 -2.88424e+12 8.78001e+12 
36 1 -42.2936 -24.4182 1.68402 2.8271e+12 -8.37098e+12 5.70568e+10 -7.49519e+12 
12036 1 -43.7521 -25.2603 1.68402 2.9862e+12 -8.24152e+12 4.13291e+11 -7.70853e+12 
12037 1 -40.872 -29.6953 1.68402 2.98609e+12 -6.54338e+12 -1.28351e+12 -8.43917e+12 
37 1 -39.5095 -28.7053 1.68402 2.82699e+12 -6.71969e+12 -1.59289e+12 -8.20691e+12 
55 1 39.5095 -28.7053 1.68402 2.82699e+12 -6.9063e+12 -1.40628e+12 8.14627e+12 
56 1 42.2936 -24.4182 1.68402 2.8271e+12 -8.54092e+12 2.26996e+11 7.39708e+12 
12055 1 40.872 -29.6953 1.68402 2.98609e+12 -6.74614e+12 -1.08075e+12 8.37329e+12 
12056 1 43.7521 -25.2603 1.68402 2.98619e+12 -8.42615e+12 5.97915e+11 7.60194e+12 
12035 1 -46.1528 -20.5486 1.68402 2.98618e+12 -9.74952e+12 1.92141e+12 -6.64035e+12 
35 1 -44.6143 -19.8636 1.68402 2.82709e+12 -9.83711e+12 1.5233e+12 -6.45523e+12 
57 1 44.6143 -19.8636 1.68402 2.82709e+12 -9.98293e+12 1.66912e+12 6.32394e+12 
12057 1 46.1528 -20.5486 1.68402 2.98619e+12 -9.90794e+12 2.07984e+12 6.4977e+12 
34 1 -46.4462 -15.0913 1.68402 2.82699e+12 -1.10541e+13 2.74142e+12 -5.13282e+12 
12034 1 -48.0479 -15.6117 1.68402 2.98609e+12 -1.10016e+13 3.17464e+12 -5.28162e+12 
58 1 46.4462 -15.0913 1.68402 2.82699e+12 -1.11694e+13 2.85675e+12 4.97407e+12 
12058 1 48.0479 -15.6117 1.68402 2.98609e+12 -1.11269e+13 3.29995e+12 5.10914e+12 
12033 1 -49.4166 -10.5038 1.68402 2.9861e+12 -1.19449e+13 4.11787e+12 -3.69245e+12 
33 1 -47.7692 -10.1537 1.68402 2.82699e+12 -1.19706e+13 3.65787e+12 -3.58648e+12 
12059 1 49.4166 -10.5038 1.68402 2.9861e+12 -1.20316e+13 4.20459e+12 3.49769e+12 
59 1 47.7692 -10.1537 1.68402 2.82699e+12 -1.20504e+13 3.73768e+12 3.40723e+12 
32 1 -48.5689 -5.10481 1.68402 2.82693e+12 -1.25447e+13 4.23282e+12 -1.88326e+12 
12032 1 -50.2438 -5.28083 1.68402 2.98603e+12 -1.25363e+13 4.7101e+12 -1.94177e+12 
31 1 -48.8364 -2.53549e-06 1.68402 2.82705e+12 -1.27543e+13 4.44109e+12 -9.8115e+10 
12031 1 -50.5206 -2.6549e-06 1.68402 2.98613e+12 -1.27529e+13 4.92535e+12 -1.06592e+11 
60 1 48.5689 -5.1048 1.68402 2.82693e+12 -1.25855e+13 4.27363e+12 1.69134e+12 
12060 1 50.2438 -5.28083 1.68402 2.98602e+12 -1.25806e+13 4.75441e+12 1.73323e+12 
12104 1 -10.5038 -49.4166 6.73607 4.33152e+12 6.1058e+12 -1.1895e+13 -4.00721e+12 
12164 1 -10.5038 -49.4166 11.7881 4.33152e+12 6.10581e+12 -1.1895e+13 -4.00721e+12 
105 1 -5.1048 -48.5689 6.73607 4.10599e+12 6.10662e+12 -1.25395e+13 -1.98156e+12 
12105 1 -5.28083 -50.2438 6.73607 4.33145e+12 6.74228e+12 -1.25307e+13 -2.04817e+12 
165 1 -5.1048 -48.5689 11.7881 4.10599e+12 6.10662e+12 -1.25395e+13 -1.98156e+12 
12165 1 -5.28083 -50.2438 11.7881 4.33145e+12 6.74229e+12 -1.25307e+13 -2.04817e+12 
106 1 -2.27374e-13 -48.8364 6.73607 4.10611e+12 6.3149e+12 -1.27491e+13 244777 
12106 1 -2.27374e-13 -50.5206 6.73607 4.33155e+12 6.95752e+12 -1.27473e+13 266523 
166 1 -2.27374e-13 -48.8364 11.7881 4.10612e+12 6.31491e+12 -1.27491e+13 90.9069 
12166 1 -2.27374e-13 -50.5206 11.7881 4.33155e+12 6.95752e+12 -1.27473e+13 -67.1096 
107 1 5.1048 -48.5689 6.73607 4.10599e+12 6.10662e+12 -1.25395e+13 1.98156e+12 
12107 1 5.28083 -50.2438 6.73607 4.33145e+12 6.74228e+12 -1.25307e+13 2.04817e+12 
167 1 5.1048 -48.5689 11.7881 4.10599e+12 6.10662e+12 -1.25395e+13 1.98156e+12 
12167 1 5.28083 -50.2438 11.7881 4.33145e+12 6.74229e+12 -1.25307e+13 2.04817e+12 
12108 1 10.5038 -49.4166 6.73607 4.33152e+12 6.1058e+12 -1.1895e+13 4.00721e+12 
12168 1 10.5038 -49.4166 11.7881 4.33152e+12 6.10581e+12 -1.1895e+13 4.00721e+12 
12101 1 -25.2603 -43.7521 6.73607 4.33162e+12 2.03114e+12 -7.82159e+12 -8.53276e+12 
12161 1 -25.2603 -43.7521 11.7881 4.33162e+12 2.03114e+12 -7.82158e+12 -8.53277e+12 
12102 1 -20.5486 -46.1528 6.73607 4.33161e+12 3.69753e+12 -9.48786e+12 -7.32205e+12 
102 1 -19.8636 -44.6143 6.73607 4.10615e+12 3.16088e+12 -9.59573e+12 -7.08393e+12 
12103 1 -15.6117 -48.0479 6.73607 4.33152e+12 5.07595e+12 -1.08651e+13 -5.79097e+12 
12162 1 -20.5486 -46.1528 11.7881 4.33161e+12 3.69754e+12 -9.48786e+12 -7.32205e+12 
162 1 -19.8636 -44.6143 11.7881 4.10616e+12 3.16089e+12 -9.59573e+12 -7.08393e+12 
12163 1 -15.6117 -48.0479 11.7881 4.33152e+12 5.07595e+12 -1.08651e+13 -5.79097e+12 
103 1 -15.0913 -46.4462 6.73607 4.10605e+12 4.49445e+12 -1.09282e+13 -5.60263e+12 
104 1 -10.1537 -47.7692 6.73607 4.10605e+12 5.4908e+12 -1.19246e+13 -3.87688e+12 
163 1 -15.0913 -46.4462 11.7881 4.10605e+12 4.49445e+12 -1.09282e+13 -5.60263e+12 
164 1 -10.1537 -47.7692 11.7881 4.10605e+12 5.4908e+12 -1.19246e+13 -3.87688e+12 
108 1 10.1537 -47.7692 6.73607 4.10605e+12 5.4908e+12 -1.19246e+13 3.87688e+12 
109 1 15.0913 -46.4462 6.73607 4.10605e+12 4.49445e+12 -1.09282e+13 5.60263e+12 
168 1 10.1537 -47.7692 11.7881 4.10605e+12 5.4908e+12 -1.19246e+13 3.87688e+12 
169 1 15.0913 -46.4462 11.7881 4.10605e+12 4.49445e+12 -1.09282e+13 5.60263e+12 
110 1 19.8636 -44.6143 6.73607 4.10615e+12 3.16088e+12 -9.59573e+12 7.08393e+12 
12109 1 15.6117 -48.0479 6.73607 4.33152e+12 5.07594e+12 -1.08651e+13 5.79097e+12 
12110 1 20.5486 -46.1528 6.73607 4.33161e+12 3.69753e+12 -9.48786e+12 7.32205e+12 
170 1 19.8636 -44.6143 11.7881 4.10616e+12 3.16089e+12 -9.59573e+12 7.08393e+12 
12169 1 15.6117 -48.0479 11.7881 4.33152e+12 5.07595e+12 -1.08651e+13 5.79097e+12 
12170 1 20.5486 -46.1528 11.7881 4.33161e+12 3.69754e+12 -9.48786e+12 7.32205e+12 
12111 1 25.2603 -43.7521 6.73607 4.33162e+12 2.03114e+12 -7.82158e+12 8.53277e+12 
12171 1 25.2603 -43.7521 11.7881 4.33162e+12 2.03114e+12 -7.82158e+12 8.53277e+12 
12099 1 -33.8049 -37.5441 6.73607 4.33162e+12 -1.86545e+12 -3.9252e+12 -9.79888e+12 
12159 1 -33.8049 -37.5441 11.7881 4.33163e+12 -1.86545e+12 -3.9252e+12 -9.79888e+12 
12100 1 -29.6953 -40.872 6.73607 4.33151e+12 1.49886e+11 -5.93899e+12 -9.36992e+12 
100 1 -28.7053 -39.5095 6.73607 4.10605e+12 -2.71382e+11 -6.16224e+12 -9.06519e+12 
12160 1 -29.6953 -40.872 11.7881 4.33151e+12 1.49888e+11 -5.93899e+12 -9.36992e+12 
160 1 -28.7053 -39.5095 11.7881 4.10606e+12 -2.7138e+11 -6.16224e+12 -9.06519e+12 
101 1 -24.4182 -42.2936 6.73607 4.10616e+12 1.54867e+12 -7.98363e+12 -8.25529e+12 
161 1 -24.4182 -42.2936 11.7881 4.10617e+12 1.54868e+12 -7.98363e+12 -8.25529e+12 
111 1 24.4182 -42.2936 6.73607 4.10616e+12 1.54867e+12 -7.98363e+12 8.25529e+12 
171 1 24.4182 -42.2936 11.7881 4.10617e+12 1.54868e+12 -7.98363e+12 8.25529e+12 
12112 1 29.6953 -40.872 6.73607 4.33151e+12 1.49886e+11 -5.93899e+12 9.36992e+12 
112 1 28.7053 -39.5095 6.73607 4.10605e+12 -2.71382e+11 -6.16224e+12 9.06519e+12 
12172 1 29.6953 -40.872 11.7881 4.33151e+12 1.49888e+11 -5.93899e+12 9.36992e+12 
172 1 28.7053 -39.5095 11.7881 4.10606e+12 -2.7138e+11 -6.16224e+12 9.06519e+12 
12113 1 33.8049 -37.5441 6.73607 4.33162e+12 -1.86545e+12 -3.9252e+12 9.79888e+12 
12173 1 33.8049 -37.5441 11.7881 4.33163e+12 -1.86545e+12 -3.9252e+12 9.79888e+12 
98 1 -36.2925 -32.6779 6.73607 4.10617e+12 -4.21397e+12 -2.22118e+12 -9.48023e+12 
12098 1 -37.5441 -33.8049 6.73607 4.33162e+12 -3.9252e+12 -1.86545e+12 -9.79888e+12 
158 1 -36.2925 -32.6779 11.7881 4.10618e+12 -4.21396e+12 -2.22118e+12 -9.48023e+12 
12158 1 -37.5441 -33.8049 11.7881 4.33163e+12 -3.9252e+12 -1.86545e+12 -9.79888e+12 
99 1 -32.6779 -36.2925 6.73607 4.10617e+12 -2.22118e+12 -4.21397e+12 -9.48023e+12 
159 1 -32.6779 -36.2925 11.7881 4.10618e+12 -2.22118e+12 -4.21396e+12 -9.48023e+12 
113 1 32.6779 -36.2925 6.73607 4.10617e+12 -2.22118e+12 -4.21397e+12 9.48023e+12 
173 1 32.6779 -36.2925 11.7881 4.10618e+12 -2.22118e+12 -4.21396e+12 9.48023e+12 
114 1 36.2925 -32.6779 6.73607 4.10617e+12 -4.21397e+12 -2.22118e+12 9.48023e+12 
12114 1 37.5441 -33.8049 6.73607 4.33162e+12 -3.9252e+12 -1.86545e+12 9.79888e+12 
174 1 36.2925 -32.6779 11.7881 4.10618e+12 -4.21396e+12 -2.22118e+12 9.48023e+12 
12174 1 37.5441 -33.8049 11.7881 4.33163e+12 -3.9252e+12 -1.86545e+12 9.79888e+12 
96 1 -42.2936 -24.4182 6.73607 4.10616e+12 -7.98363e+12 1.54867e+12 -8.25529e+12 
12096 1 -43.7521 -25.2603 6.73607 4.33162e+12 -7.82158e+12 2.03114e+12 -8.53277e+12 
12097 1 -40.872 -29.6953 6.73607 4.33151e+12 -5.93899e+12 1.49886e+11 -9.36992e+12 
97 1 -39.5095 -28.7053 6.73607 4.10605e+12 -6.16224e+12 -2.71382e+11 -9.06519e+12 
156 1 -42.2936 -24.4182 11.7881 4.10617e+12 -7.98363e+12 1.54868e+12 -8.25529e+12 
12156 1 -43.7521 -25.2603 11.7881 4.33162e+12 -7.82158e+12 2.03114e+12 -8.53277e+12 
12157 1 -40.872 -29.6953 11.7881 4.33151e+12 -5.93899e+12 1.49888e+11 -9.36992e+12 
157 1 -39.5095 -28.7053 11.7881 4.10606e+12 -6.16224e+12 -2.7138e+11 -9.06519e+12 
115 1 39.5095 -28.7053 6.73607 4.10605e+12 -6.16224e+12 -2.71382e+11 9.06519e+12 
116 1 42.2936 -24.4182 6.73607 4.10616e+12 -7.98363e+12 1.54867e+12 8.25529e+12 
12115 1 40.872 -29.6953 6.73607 4.33151e+12 -5.93899e+12 1.49886e+11 9.36992e+12 
12116 1 43.7521 -25.2603 6.73607 4.33162e+12 -7.82159e+12 2.03114e+12 8.53276e+12 
175 1 39.5095 -28.7053 11.7881 4.10606e+12 -6.16224e+12 -2.7138e+11 9.06519e+12 
176 1 42.2936 -24.4182 11.7881 4.10617e+12 -7.98363e+12 1.54868e+12 8.25529e+12 
12175 1 40.872 -29.6953 11.7881 4.33151e+12 -5.93899e+12 1.49888e+11 9.36992e+12 
12176 1 43.7521 -25.2603 11.7881 4.33162e+12 -7.82158e+12 2.03114e+12 8.53277e+12 
12095 1 -46.1528 -20.5486 6.73607 4.33161e+12 -9.48786e+12 3.69753e+12 -7.32205e+12 
12155 1 -46.1528 -20.5486 11.7881 4.33161e+12 -9.48786e+12 3.69754e+12 -7.32205e+12 
95 1 -44.6143 -19.8636 6.73607 4.10615e+12 -9.59573e+12 3.16088e+12 -7.08393e+12 
155 1 -44.6143 -19.8636 11.7881 4.10616e+12 -9.59573e+12 3.16089e+12 -7.08393e+12 
117 1 44.6143 -19.8636 6.73607 4.10615e+12 -9.59573e+12 3.16088e+12 7.08393e+12 
177 1 44.6143 -19.8636 11.7881 4.10616e+12 -9.59573e+12 3.16089e+12 7.08393e+12 
12117 1 46.1528 -20.5486 6.73607 4.33161e+12 -9.48786e+12 3.69753e+12 7.32205e+12 
12177 1 46.1528 -20.5486 11.7881 4.33161e+12 -9.48786e+12 3.69754e+12 7.32205e+12 
94 1 -46.4462 -15.0913 6.73607 4.10605e+12 -1.09282e+13 4.49445e+12 -5.60263e+12 
12094 1 -48.0479 -15.6117 6.73607 4.33152e+12 -1.08651e+13 5.07594e+12 -5.79097e+12 
154 1 -46.4462 -15.0913 11.7881 4.10605e+12 -1.09282e+13 4.49445e+12 -5.60263e+12 
12154 1 -48.0479 -15.6117 11.7881 4.33152e+12 -1.08651e+13 5.07595e+12 -5.79097e+12 
118 1 46.4462 -15.0913 6.73607 4.10605e+12 -1.09282e+13 4.49445e+12 5.60263e+12 
12118 1 48.0479 -15.6117 6.73607 4.33152e+12 -1.08651e+13 5.07595e+12 5.79097e+12 
178 1 46.4462 -15.0913 11.7881 4.10605e+12 -1.09282e+13 4.49445e+12 5.60263e+12 
12178 1 48.0479 -15.6117 11.7881 4.33152e+12 -1.08651e+13 5.07595e+12 5.79097e+12 
12093 1 -49.4166 -10.5038 6.73607 4.33152e+12 -1.1895e+13 6.1058e+12 -4.00721e+12 
93 1 -47.7692 -10.1537 6.73607 4.10605e+12 -1.19246e+13 5.4908e+12 -3.87688e+12 
12153 1 -49.4166 -10.5038 11.7881 4.33152e+12 -1.1895e+13 6.10581e+12 -4.00721e+12 
153 1 -47.7692 -10.1537 11.7881 4.10605e+12 -1.19246e+13 5.4908e+12 -3.87688e+12 
12119 1 49.4166 -10.5038 6.73607 4.33152e+12 -1.1895e+13 6.1058e+12 4.00721e+12 
119 1 47.7692 -10.1537 6.73607 4.10605e+12 -1.19246e+13 5.4908e+12 3.87688e+12 
12179 1 49.4166 -10.5038 11.7881 4.33152e+12 -1.1895e+13 6.10581e+12 4.00721e+12 
179 1 47.7692 -10.1537 11.7881 4.10605e+12 -1.19246e+13 5.4908e+12 3.87688e+12 
92 1 -48.5689 -5.1048 6.73607 4.10599e+12 -1.25395e+13 6.10662e+12 -1.98156e+12 
12092 1 -50.2438 -5.28083 6.73607 4.33145e+12 -1.25307e+13 6.74228e+12 -2.04817e+12 
152 1 -48.5689 -5.1048 11.7881 4.10599e+12 -1.25395e+13 6.10662e+12 -1.98156e+12 
12152 1 -50.2438 -5.28083 11.7881 4.33145e+12 -1.25307e+13 6.74229e+12 -2.04817e+12 
91 1 -48.8364 -2.27374e-13 6.73607 4.10611e+12 -1.27491e+13 6.3149e+12 -244905 
151 1 -48.8364 -2.27374e-13 11.7881 4.10612e+12 -1.27491e+13 6.31491e+12 73.8677 
12151 1 -50.5206 -2.27374e-13 11.7881 4.33155e+12 -1.27473e+13 6.95752e+12 -2.19255 
12091 1 -50.5206 -2.27374e-13 6.73607 4.33155e+12 -1.27473e+13 6.95752e+12 -266641 
120 1 48.5689 -5.1048 6.73607 4.10599e+12 -1.25395e+13 6.10662e+12 1.98156e+12 
12120 1 50.2438 -5.28083 6.73607 4.33145e+12 -1.25307e+13 6.74228e+12 2.04817e+12 
180 1 48.5689 -5.1048 11.7881 4.10599e+12 -1.25395e+13 6.10662e+12 1.98156e+12 
12180 1 50.2438 -5.28083 11.7881 4.33145e+12 -1.25307e+13 6.74229e+12 2.04817e+12 
12061 1 50.5206 -2.27374e-13 6.73607 4.33155e+12 -1.27473e+13 6.95752e+12 -266525 
121 1 48.8364 -2.27374e-13 11.7881 4.10612e+12 -1.27491e+13 6.31491e+12 -95.3564 
12121 1 50.5206 -2.27374e-13 11.7881 4.33155e+12 -1.27473e+13 6.95752e+12 69.208 
61 1 48.8364 -2.27374e-13 6.73607 4.10611e+12 -1.27491e+13 6.3149e+12 -244830 
12224 1 -10.5038 -49.4166 16.8402 4.33152e+12 6.10581e+12 -1.1895e+13 -4.00721e+12 
225 1 -5.1048 -48.5689 16.8402 4.10599e+12 6.10662e+12 -1.25395e+13 -1.98156e+12 
12225 1 -5.28083 -50.2438 16.8402 4.33145e+12 6.74229e+12 -1.25307e+13 -2.04817e+12 
226 1 -2.27374e-13 -48.8364 16.8402 4.10612e+12 6.31491e+12 -1.27491e+13 93.1499 
12226 1 -2.27374e-13 -50.5206 16.8402 4.33155e+12 6.95752e+12 -1.27473e+13 29.9228 
227 1 5.1048 -48.5689 16.8402 4.10599e+12 6.10662e+12 -1.25395e+13 1.98156e+12 
12227 1 5.28083 -50.2438 16.8402 4.33145e+12 6.74229e+12 -1.25307e+13 2.04817e+12 
12228 1 10.5038 -49.4166 16.8402 4.33152e+12 6.10581e+12 -1.1895e+13 4.00721e+12 
12221 1 -25.2603 -43.7521 16.8402 4.33162e+12 2.03114e+12 -7.82158e+12 -8.53277e+12 
12222 1 -20.5486 -46.1528 16.8402 4.33161e+12 3.69754e+12 -9.48786e+12 -7.32205e+12 
222 1 -19.8636 -44.6143 16.8402 4.10616e+12 3.16089e+12 -9.59573e+12 -7.08393e+12 
12223 1 -15.6117 -48.0479 16.8402 4.33152e+12 5.07595e+12 -1.08651e+13 -5.79097e+12 
223 1 -15.0913 -46.4462 16.8402 4.10605e+12 4.49445e+12 -1.09282e+13 -5.60263e+12 
224 1 -10.1537 -47.7692 16.8402 4.10605e+12 5.4908e+12 -1.19246e+13 -3.87688e+12 
228 1 10.1537 -47.7692 16.8402 4.10605e+12 5.4908e+12 -1.19246e+13 3.87688e+12 
229 1 15.0913 -46.4462 16.8402 4.10605e+12 4.49445e+12 -1.09282e+13 5.60263e+12 
230 1 19.8636 -44.6143 16.8402 4.10616e+12 3.16089e+12 -9.59573e+12 7.08393e+12 
12229 1 15.6117 -48.0479 16.8402 4.33152e+12 5.07595e+12 -1.08651e+13 5.79097e+12 
12230 1 20.5486 -46.1528 16.8402 4.33161e+12 3.69754e+12 -9.48786e+12 7.32205e+12 
12231 1 25.2603 -43.7521 16.8402 4.33162e+12 2.03114e+12 -7.82158e+12 8.53277e+12 
12219 1 -33.8049 -37.5441 16.8402 4.33163e+12 -1.86545e+12 -3.9252e+12 -9.79888e+12 
12220 1 -29.6953 -40.872 16.8402 4.33151e+12 1.49888e+11 -5.93899e+12 -9.36992e+12 
220 1 -28.7053 -39.5095 16.8402 4.10606e+12 -2.7138e+11 -6.16224e+12 -9.06519e+12 
221 1 -24.4182 -42.2936 16.8402 4.10617e+12 1.54868e+12 -7.98363e+12 -8.25529e+12 
231 1 24.4182 -42.2936 16.8402 4.10617e+12 1.54868e+12 -7.98363e+12 8.25529e+12 
12232 1 29.6953 -40.872 16.8402 4.33151e+12 1.49888e+11 -5.93899e+12 9.36992e+12 
232 1 28.7053 -39.5095 16.8402 4.10606e+12 -2.7138e+11 -6.16224e+12 9.06519e+12 
12233 1 33.8049 -37.5441 16.8402 4.33163e+12 -1.86545e+12 -3.9252e+12 9.79888e+12 
218 1 -36.2925 -32.6779 16.8402 4.10618e+12 -4.21396e+12 -2.22118e+12 -9.48023e+12 
12218 1 -37.5441 -33.8049 16.8402 4.33163e+12 -3.9252e+12 -1.86545e+12 -9.79888e+12 
219 1 -32.6779 -36.2925 16.8402 4.10618e+12 -2.22118e+12 -4.21396e+12 -9.48023e+12 
233 1 32.6779 -36.2925 16.8402 4.10618e+12 -2.22118e+12 -4.21396e+12 9.48023e+12 
234 1 36.2925 -32.6779 16.8402 4.10618e+12 -4.21396e+12 -2.22118e+12 9.48023e+12 
12234 1 37.5441 -33.8049 16.8402 4.33163e+12 -3.9252e+12 -1.86545e+12 9.79888e+12 
216 1 -42.2936 -24.4182 16.8402 4.10617e+12 -7.98363e+12 1.54868e+12 -8.25529e+12 
12216 1 -43.7521 -25.2603 16.8402 4.33162e+12 -7.82158e+12 2.03114e+12 -8.53277e+12 
12217 1 -40.872 -29.6953 16.8402 4.33151e+12 -5.93899e+12 1.49888e+11 -9.36992e+12 
217 1 -39.5095 -28.7053 16.8402 4.10606e+12 -6.16224e+12 -2.7138e+11 -9.06519e+12 
235 1 39.5095 -28.7053 16.8402 4.10606e+12 -6.16224e+12 -2.7138e+11 9.06519e+12 
236 1 42.2936 -24.4182 16.8402 4.10617e+12 -7.98363e+12 1.54868e+12 8.25529e+12 
12235 1 40.872 -29.6953 16.8402 4.33151e+12 -5.93899e+12 1.49888e+11 9.36992e+12 
12236 1 43.7521 -25.2603 16.8402 4.33162e+12 -7.82158e+12 2.03114e+12 8.53277e+12 
12215 1 -46.1528 -20.5486 16.8402 4.33161e+12 -9.48786e+12 3.69754e+12 -7.32205e+12 
215 1 -44.6143 -19.8636 16.8402 4.10616e+12 -9.59573e+12 3.16089e+12 -7.08393e+12 
237 1 44.6143 -19.8636 16.8402 4.10616e+12 -9.59573e+12 3.16089e+12 7.08393e+12 
12237 1 46.1528 -20.5486 16.8402 4.33161e+12 -9.48786e+12 3.69754e+12 7.32205e+12 
214 1 -46.4462 -15.0913 16.8402 4.10605e+12 -1.09282e+13 4.49445e+12 -5.60263e+12 
12214 1 -48.0479 -15.6117 16.8402 4.33152e+12 -1.08651e+13 5.07595e+12 -5.79097e+12 
238 1 46.4462 -15.0913 16.8402 4.10605e+12 -1.09282e+13 4.49445e+12 5.60263e+12 
12238 1 48.0479 -15.6117 16.8402 4.33152e+12 -1.08651e+13 5.07595e+12 5.79097e+12 
12213 1 -49.4166 -10.5038 16.8402 4.33152e+12 -1.1895e+13 6.10581e+12 -4.00721e+12 
213 1 -47.7692 -10.1537 16.8402 4.10605e+12 -1.19246e+13 5.4908e+12 -3.87688e+12 
12239 1 49.4166 -10.5038 16.8402 4.33152e+12 -1.1895e+13 6.10581e+12 4.00721e+12 
239 1 47.7692 -10.1537 16.8402 4.10605e+12 -1.19246e+13 5.4908e+12 3.87688e+12 
212 1 -48.5689 -5.1048 16.8402 4.10599e+12 -1.25395e+13 6.10662e+12 -1.98156e+12 
12212 1 -50.2438 -5.28083 16.8402 4.33145e+12 -1.25307e+13 6.74229e+12 -2.04817e+12 
211 1 -48.8364 -2.27374e-13 16.8402 4.10612e+12 -1.27491e+13 6.31491e+12 -7.10971 
12211 1 -50.5206 -2.27374e-13 16.8402 4.33155e+12 -1.27473e+13 6.95752e+12 -74.3229 
240 1 48.5689 -5.1048 16.8402 4.10599e+12 -1.25395e+13 6.10662e+12 1.98156e+12 
12240 1 50.2438 -5.28083 16.8402 4.33145e+12 -1.25307e+13 6.74229e+12 2.04817e+12 
181 1 48.8364 -2.27374e-13 16.8402 4.10612e+12 -1.27491e+13 6.31491e+12 -77.886 
12181 1 50.5206 -2.27374e-13 16.8402 4.33155e+12 -1.27473e+13 6.95752e+12 -40.2128 
12284 1 -10.5038 -49.4166 21.8922 4.33152e+12 6.10581e+12 -1.1895e+13 -4.00721e+12 
285 1 -5.1048 -48.5689 21.8922 4.10599e+12 6.10662e+12 -1.25395e+13 -1.98156e+12 
12285 1 -5.28083 -50.2438 21.8922 4.33145e+12 6.74229e+12 -1.25307e+13 -2.04817e+12 
286 1 -2.27374e-13 -48.8364 21.8922 4.10612e+12 6.31491e+12 -1.27491e+13 83.777 
12286 1 -2.27374e-13 -50.5206 21.8922 4.33155e+12 6.95752e+12 -1.27473e+13 -87.6112 
287 1 5.1048 -48.5689 21.8922 4.10599e+12 6.10662e+12 -1.25395e+13 1.98156e+12 
12287 1 5.28083 -50.2438 21.8922 4.33145e+12 6.74229e+12 -1.25307e+13 2.04817e+12 
12288 1 10.5038 -49.4166 21.8922 4.33152e+12 6.10581e+12 -1.1895e+13 4.00721e+12 
12281 1 -25.2603 -43.7521 21.8922 4.33162e+12 2.03114e+12 -7.82158e+12 -8.53277e+12 
12282 1 -20.5486 -46.1528 21.8922 4.33161e+12 3.69754e+12 -9.48786e+12 -7.32205e+12 
282 1 -19.8636 -44.6143 21.8922 4.10616e+12 3.16089e+12 -9.59573e+12 -7.08393e+12 
12283 1 -15.6117 -48.0479 21.8922 4.33152e+12 5.07595e+12 -1.08651e+13 -5.79097e+12 
283 1 -15.0913 -46.4462 21.8922 4.10605e+12 4.49445e+12 -1.09282e+13 -5.60263e+12 
284 1 -10.1537 -47.7692 21.8922 4.10605e+12 5.4908e+12 -1.19246e+13 -3.87688e+12 
288 1 10.1537 -47.7692 21.8922 4.10605e+12 5.4908e+12 -1.19246e+13 3.87688e+12 
289 1 15.0913 -46.4462 21.8922 4.10605e+12 4.49445e+12 -1.09282e+13 5.60263e+12 
290 1 19.8636 -44.6143 21.8922 4.10616e+12 3.16089e+12 -9.59573e+12 7.08393e+12 
12289 1 15.6117 -48.0479 21.8922 4.33152e+12 5.07595e+12 -1.08651e+13 5.79097e+12 
12290 1 20.5486 -46.1528 21.8922 4.33161e+12 3.69754e+12 -9.48786e+12 7.32205e+12 
12291 1 25.2603 -43.7521 21.8922 4.33162e+12 2.03114e+12 -7.82158e+12 8.53277e+12 
12279 1 -33.8049 -37.5441 21.8922 4.33163e+12 -1.86545e+12 -3.9252e+12 -9.79888e+12 
12280 1 -29.6953 -40.872 21.8922 4.33151e+12 1.49888e+11 -5.93899e+12 -9.36992e+12 
280 1 -28.7053 -39.5095 21.8922 4.10606e+12 -2.7138e+11 -6.16224e+12 -9.06519e+12 
281 1 -24.4182 -42.2936 21.8922 4.10617e+12 1.54868e+12 -7.98363e+12 -8.25529e+12 
291 1 24.4182 -42.2936 21.8922 4.10617e+12 1.54868e+12 -7.98363e+12 8.25529e+12 
12292 1 29.6953 -40.872 21.8922 4.33151e+12 1.49888e+11 -5.93899e+12 9.36992e+12 
292 1 28.7053 -39.5095 21.8922 4.10606e+12 -2.7138e+11 -6.16224e+12 9.06519e+12 
12293 1 33.8049 -37.5441 21.8922 4.33163e+12 -1.86545e+12 -3.9252e+12 9.79888e+12 
278 1 -36.2925 -32.6779 21.8922 4.10618e+12 -4.21396e+12 -2.22118e+12 -9.48023e+12 
12278 1 -37.5441 -33.8049 21.8922 4.33163e+12 -3.9252e+12 -1.86545e+12 -9.79888e+12 
279 1 -32.6779 -36.2925 21.8922 4.10618e+12 -2.22118e+12 -4.21396e+12 -9.48023e+12 
293 1 32.6779 -36.2925 21.8922 4.10618e+12 -2.22118e+12 -4.21396e+12 9.48023e+12 
294 1 36.2925 -32.6779 21.8922 4.10618e+12 -4.21396e+12 -2.22118e+12 9.48023e+12 
12294 1 37.5441 -33.8049 21.8922 4.33163e+12 -3.9252e+12 -1.86545e+12 9.79888e+12 
276 1 -42.2936 -24.4182 21.8922 4.10617e+12 -7.98363e+12 1.54868e+12 -8.25529e+12 
12276 1 -43.7521 -25.2603 21.8922 4.33162e+12 -7.82158e+12 2.03114e+12 -8.53277e+12 
12277 1 -40.872 -29.6953 21.8922 4.33151e+12 -5.93899e+12 1.49888e+11 -9.36992e+12 
277 1 -39.5095 -28.7053 21.8922 4.10606e+12 -6.16224e+12 -2.7138e+11 -9.06519e+12 
295 1 39.5095 -28.7053 21.8922 4.10606e+12 -6.16224e+12 -2.7138e+11 9.06519e+12 
296 1 42.2936 -24.4182 21.8922 4.10617e+12 -7.98363e+12 1.54868e+12 8.25529e+12 
12295 1 40.872 -29.6953 21.8922 4.33151e+12 -5.93899e+12 1.49888e+11 9.36992e+12 
12296 1 43.7521 -25.2603 21.8922 4.33162e+12 -7.82158e+12 2.03114e+12 8.53277e+12 
12275 1 -46.1528 -20.5486 21.8922 4.33161e+12 -9.48786e+12 3.69754e+12 -7.32205e+12 
275 1 -44.6143 -19.8636 21.8922 4.10616e+12 -9.59573e+12 3.16089e+12 -7.08393e+12 
297 1 44.6143 -19.8636 21.8922 4.10616e+12 -9.59573e+12 3.16089e+12 7.08393e+12 
12297 1 46.1528 -20.5486 21.8922 4.33161e+12 -9.48786e+12 3.69754e+12 7.32205e+12 
274 1 -46.4462 -15.0913 21.8922 4.10605e+12 -1.09282e+13 4.49445e+12 -5.60263e+12 
12274 1 -48.0479 -15.6117 21.8922 4.33152e+12 -1.08651e+13 5.07595e+12 -5.79097e+12 
298 1 46.4462 -15.0913 21.8922 4.10605e+12 -1.09282e+13 4.49445e+12 5.60263e+12 
12298 1 48.0479 -15.6117 21.8922 4.33152e+12 -1.08651e+13 5.07595e+12 5.79097e+12 
12273 1 -49.4166 -10.5038 21.8922 4.33152e+12 -1.1895e+13 6.10581e+12 -4.00721e+12 
273 1 -47.7692 -10.1537 21.8922 4.10605e+12 -1.19246e+13 5.4908e+12 -3.87688e+12 
12299 1 49.4166 -10.5038 21.8922 4.33152e+12 -1.1895e+13 6.10581e+12 4.00721e+12 
299 1 47.7692 -10.1537 21.8922 4.10605e+12 -1.19246e+13 5.4908e+12 3.87688e+12 
272 1 -48.5689 -5.1048 21.8922 4.10599e+12 -1.25395e+13 6.10662e+12 -1.98156e+12 
12272 1 -50.2438 -5.28083 21.8922 4.33145e+12 -1.25307e+13 6.74229e+12 -2.04817e+12 
271 1 -48.8364 -2.27374e-13 21.8922 4.10612e+12 -1.27491e+13 6.31491e+12 -15.5315 
12271 1 -50.5206 -2.27374e-13 21.8922 4.33155e+12 -1.27473e+13 6.95752e+12 -69.0879 
300 1 48.5689 -5.1048 21.8922 4.10599e+12 -1.25395e+13 6.10662e+12 1.98156e+12 
12300 1 50.2438 -5.28083 21.8922 4.33145e+12 -1.25307e+13 6.74229e+12 2.04817e+12 
241 1 48.8364 -2.27374e-13 21.8922 4.10612e+12 -1.27491e+13 6.31491e+12 53.3251 
12241 1 50.5206 -2.27374e-13 21.8922 4.33155e+12 -1.27473e+13 6.95752e+12 87.6818 
12344 1 -10.5038 -49.4166 26.9443 4.33152e+12 6.10581e+12 -1.1895e+13 -4.00721e+12 
345 1 -5.1048 -48.5689 26.9443 4.10599e+12 6.10662e+12 -1.25395e+13 -1.98156e+12 
12345 1 -5.28083 -50.2438 26.9443 4.33145e+12 6.74229e+12 -1.25307e+13 -2.04817e+12 
346 1 -2.27374e-13 -48.8364 26.9443 4.10612e+12 6.31491e+12 -1.27491e+13 -18.6297 
12346 1 -2.27374e-13 -50.5206 26.9443 4.33155e+12 6.95752e+12 -1.27473e+13 50.318 
347 1 5.1048 -48.5689 26.9443 4.10599e+12 6.10662e+12 -1.25395e+13 1.98156e+12 
12347 1 5.28083 -50.2438 26.9443 4.33145e+12 6.74229e+12 -1.25307e+13 2.04817e+12 
12348 1 10.5038 -49.4166 26.9443 4.33152e+12 6.10581e+12 -1.1895e+13 4.00721e+12 
12341 1 -25.2603 -43.7521 26.9443 4.33162e+12 2.03114e+12 -7.82158e+12 -8.53277e+12 
12342 1 -20.5486 -46.1528 26.9443 4.33161e+12 3.69754e+12 -9.48786e+12 -7.32205e+12 
342 1 -19.8636 -44.6143 26.9443 4.10616e+12 3.16089e+12 -9.59573e+12 -7.08393e+12 
12343 1 -15.6117 -48.0479 26.9443 4.33152e+12 5.07595e+12 -1.08651e+13 -5.79097e+12 
343 1 -15.0913 -46.4462 26.9443 4.10605e+12 4.49445e+12 -1.09282e+13 -5.60263e+12 
344 1 -10.1537 -47.7692 26.9443 4.10605e+12 5.4908e+12 -1.19246e+13 -3.87688e+12 
348 1 10.1537 -47.7692 26.9443 4.10605e+12 5.4908e+12 -1.19246e+13 3.87688e+12 
349 1 15.0913 -46.4462 26.9443 4.10605e+12 4.49445e+12 -1.09282e+13 5.60263e+12 
350 1 19.8636 -44.6143 26.9443 4.10616e+12 3.16089e+12 -9.59573e+12 7.08393e+12 
12349 1 15.6117 -48.0479 26.9443 4.33152e+12 5.07595e+12 -1.08651e+13 5.79097e+12 
12350 1 20.5486 -46.1528 26.9443 4.33161e+12 3.69754e+12 -9.48786e+12 7.32205e+12 
12351 1 25.2603 -43.7521 26.9443 4.33162e+12 2.03114e+12 -7.82158e+12 8.53277e+12 
12339 1 -33.8049 -37.5441 26.9443 4.33163e+12 -1.86545e+12 -3.9252e+12 -9.79888e+12 
12340 1 -29.6953 -40.872 26.9443 4.33151e+12 1.49888e+11 -5.93899e+12 -9.36992e+12 
340 1 -28.7053 -39.5095 26.9443 4.10606e+12 -2.7138e+11 -6.16224e+12 -9.06519e+12 
341 1 -24.4182 -42.2936 26.9443 4.10617e+12 1.54868e+12 -7.98363e+12 -8.25529e+12 
351 1 24.4182 -42.2936 26.9443 4.10617e+12 1.54868e+12 -7.98363e+12 8.25529e+12 
12352 1 29.6953 -40.872 26.9443 4.33151e+12 1.49888e+11 -5.93899e+12 9.36992e+12 
352 1 28.7053 -39.5095 26.9443 4.10606e+12 -2.7138e+11 -6.16224e+12 9.06519e+12 
12353 1 33.8049 -37.5441 26.9443 4.33163e+12 -1.86545e+12 -3.9252e+12 9.79888e+12 
338 1 -36.2925 -32.6779 26.9443 4.10618e+12 -4.21396e+12 -2.22118e+12 -9.48023e+12 
12338 1 -37.5441 -33.8049 26.9443 4.33163e+12 -3.9252e+12 -1.86545e+12 -9.79888e+12 
339 1 -32.6779 -36.2925 26.9443 4.10618e+12 -2.22118e+12 -4.21396e+12 -9.48023e+12 
353 1 32.6779 -36.2925 26.9443 4.10618e+12 -2.22118e+12 -4.21396e+12 9.48023e+12 
354 1 36.2925 -32.6779 26.9443 4.10618e+12 -4.21396e+12 -2.22118e+12 9.48023e+12 
12354 1 37.5441 -33.8049 26.9443 4.33163e+12 -3.9252e+12 -1.86545e+12 9.79888e+12 
336 1 -42.2936 -24.4182 26.9443 4.10617e+12 -7.98363e+12 1.54868e+12 -8.25529e+12 
12336 1 -43.7521 -25.2603 26.9443 4.33162e+12 -7.82158e+12 2.03114e+12 -8.53277e+12 
12337 1 -40.872 -29.6953 26.9443 4.33151e+12 -5.93899e+12 1.49888e+11 -9.36992e+12 
337 1 -39.5095 -28.7053 26.9443 4.10606e+12 -6.16224e+12 -2.7138e+11 -9.06519e+12 
355 1 39.5095 -28.7053 26.9443 4.10606e+12 -6.16224e+12 -2.7138e+11 9.06519e+12 
356 1 42.2936 -24.4182 26.9443 4.10617e+12 -7.98363e+12 1.54868e+12 8.25529e+12 
12355 1 40.872 -29.6953 26.9443 4.33151e+12 -5.93899e+12 1.49888e+11 9.36992e+12 
12356 1 43.7521 -25.2603 26.9443 4.33162e+12 -7.82158e+12 2.03114e+12 8.53277e+12 
12335 1 -46.1528 -20.5486 26.9443 4.33161e+12 -9.48786e+12 3.69754e+12 -7.32205e+12 
335 1 -44.6143 -19.8636 26.9443 4.10616e+12 -9.59573e+12 3.16089e+12 -7.08393e+12 
357 1 44.6143 -19.8636 26.9443 4.10616e+12 -9.59573e+12 3.16089e+12 7.08393e+12 
12357 1 46.1528 -20.5486 26.9443 4.33161e+12 -9.48786e+12 3.69754e+12 7.32205e+12 
334 1 -46.4462 -15.0913 26.9443 4.10605e+12 -1.09282e+13 4.49445e+12 -5.60263e+12 
12334 1 -48.0479 -15.6117 26.9443 4.33152e+12 -1.08651e+13 5.07595e+12 -5.79097e+12 
358 1 46.4462 -15.0913 26.9443 4.10605e+12 -1.09282e+13 4.49445e+12 5.60263e+12 
12358 1 48.0479 -15.6117 26.9443 4.33152e+12 -1.08651e+13 5.07595e+12 5.79097e+12 
12333 1 -49.4166 -10.5038 26.9443 4.33152e+12 -1.1895e+13 6.10581e+12 -4.00721e+12 