ITEM: TIMESTEP
15000
ITEM: NUMBER OF ATOMS
24000
ITEM: BOX BOUNDS pp pp pp
-1.3465038590125641e+03 1.3465038590125641e+03
-1.3465038590125641e+03 1.3465038590125641e+03
-1.3465038590125641e+03 1.3465038590125641e+03
ITEM: ATOMS id type x y z c_pte c_csym[1] c_csym[2] c_csym[4] 
12044 1 -10.4984 -49.3912 1.68318 2.97852e+12 4.19808e+12 -1.20121e+13 -3.49099e+12 
45 1 -5.10201 -48.5426 1.68318 2.8195e+12 4.26586e+12 -1.25649e+13 -1.68941e+12 
12045 1 -5.27808 -50.218 1.68318 2.97845e+12 4.74679e+12 -1.256e+13 -1.72939e+12 
46 1 3.2639e-05 -48.81 1.68318 2.81962e+12 4.43323e+12 -1.27336e+13 9.70503e+10 
12046 1 3.42058e-05 -50.4946 1.68318 2.97855e+12 4.91725e+12 -1.27318e+13 1.07416e+11 
47 1 5.10208 -48.5426 1.68318 2.8195e+12 4.2255e+12 -1.25246e+13 1.87926e+12 
12047 1 5.27815 -50.218 1.68318 2.97845e+12 4.70214e+12 -1.25153e+13 1.93953e+12 
12048 1 10.4985 -49.3912 1.68318 2.97852e+12 4.1107e+12 -1.19247e+13 3.68725e+12 
12041 1 -25.2473 -43.7296 1.68318 2.97862e+12 5.9784e+11 -8.41301e+12 -7.58885e+12 
12042 1 -20.538 -46.1291 1.68318 2.97861e+12 2.07719e+12 -9.89223e+12 -6.48628e+12 
42 1 -19.8528 -44.5902 1.68318 2.81966e+12 1.66519e+12 -9.96617e+12 -6.31404e+12 
12043 1 -15.6037 -48.0233 1.68318 2.97852e+12 3.29512e+12 -1.1109e+13 -5.09987e+12 
43 1 -15.0831 -46.4211 1.68318 2.81956e+12 2.85099e+12 -1.11509e+13 -4.96654e+12 
44 1 -10.1481 -47.7434 1.68318 2.81956e+12 3.73062e+12 -1.20306e+13 -3.4024e+12 
48 1 10.1482 -47.7434 1.68318 2.81956e+12 3.65168e+12 -1.19516e+13 3.57971e+12 
49 1 15.0832 -46.4211 1.68318 2.81956e+12 2.73691e+12 -1.10368e+13 5.12357e+12 
50 1 19.8529 -44.5902 1.68318 2.81966e+12 1.52096e+12 -9.82193e+12 6.44392e+12 
12049 1 15.6037 -48.0232 1.68318 2.97852e+12 3.16884e+12 -1.09828e+13 5.27369e+12 
12050 1 20.538 -46.1291 1.68318 2.97861e+12 1.91753e+12 -9.73258e+12 6.63003e+12 
12051 1 25.2473 -43.7296 1.68318 2.97862e+12 4.11788e+11 -8.22696e+12 7.69627e+12 
12039 1 -33.7875 -37.5248 1.68318 2.97863e+12 -2.87842e+12 -4.93693e+12 -8.76537e+12 
12040 1 -29.68 -40.851 1.68318 2.97851e+12 -1.07796e+12 -6.73588e+12 -8.35912e+12 
40 1 -28.6898 -39.4882 1.68318 2.81956e+12 -1.4053e+12 -6.89447e+12 -8.13304e+12 
41 1 -24.405 -42.2707 1.68318 2.81967e+12 2.25351e+11 -8.52644e+12 -7.38525e+12 
51 1 24.405 -42.2707 1.68318 2.81967e+12 5.72566e+10 -8.35835e+12 7.4823e+12 
12052 1 29.68 -40.851 1.68318 2.97851e+12 -1.28229e+12 -6.53155e+12 8.42551e+12 
52 1 28.6898 -39.4881 1.68318 2.81956e+12 -1.58988e+12 -6.70989e+12 8.19301e+12 
12053 1 33.7875 -37.5248 1.68318 2.97862e+12 -3.09209e+12 -4.72328e+12 8.78782e+12 
38 1 -36.2729 -32.6603 1.68318 2.81968e+12 -4.95136e+12 -3.34992e+12 -8.54696e+12 
12038 1 -37.5248 -33.7875 1.68318 2.97862e+12 -4.72328e+12 -3.09209e+12 -8.78782e+12 
39 1 -32.6603 -36.2729 1.68318 2.81968e+12 -3.15689e+12 -5.14439e+12 -8.52668e+12 
53 1 32.6603 -36.2729 1.68318 2.81968e+12 -3.34992e+12 -4.95136e+12 8.54696e+12 
54 1 36.2729 -32.6603 1.68318 2.81968e+12 -5.14439e+12 -3.15689e+12 8.52668e+12 
12054 1 37.5248 -33.7875 1.68318 2.97863e+12 -4.93693e+12 -2.87842e+12 8.76537e+12 
36 1 -42.2707 -24.405 1.68318 2.81967e+12 -8.35835e+12 5.72566e+10 -7.4823e+12 
12036 1 -43.7296 -25.2473 1.68318 2.97862e+12 -8.22696e+12 4.11788e+11 -7.69627e+12 
12037 1 -40.851 -29.68 1.68318 2.97851e+12 -6.53155e+12 -1.28229e+12 -8.42551e+12 
37 1 -39.4881 -28.6898 1.68318 2.81956e+12 -6.70989e+12 -1.58988e+12 -8.19301e+12 
55 1 39.4882 -28.6898 1.68318 2.81956e+12 -6.89447e+12 -1.4053e+12 8.13304e+12 
56 1 42.2707 -24.405 1.68318 2.81967e+12 -8.52644e+12 2.25351e+11 7.38525e+12 
12055 1 40.851 -29.68 1.68318 2.97851e+12 -6.73588e+12 -1.07796e+12 8.35912e+12 
12056 1 43.7296 -25.2473 1.68318 2.97862e+12 -8.41301e+12 5.9784e+11 7.58885e+12 
12035 1 -46.1291 -20.538 1.68318 2.97861e+12 -9.73258e+12 1.91753e+12 -6.63003e+12 
35 1 -44.5902 -19.8529 1.68318 2.81966e+12 -9.82193e+12 1.52096e+12 -6.44392e+12 
57 1 44.5902 -19.8528 1.68318 2.81966e+12 -9.96617e+12 1.66519e+12 6.31404e+12 
12057 1 46.1291 -20.538 1.68318 2.97861e+12 -9.89223e+12 2.07719e+12 6.48628e+12 
34 1 -46.4211 -15.0832 1.68318 2.81956e+12 -1.10368e+13 2.73691e+12 -5.12357e+12 
12034 1 -48.0232 -15.6037 1.68318 2.97852e+12 -1.09828e+13 3.16884e+12 -5.27369e+12 
58 1 46.4211 -15.0831 1.68318 2.81956e+12 -1.11509e+13 2.85099e+12 4.96654e+12 
12058 1 48.0233 -15.6037 1.68318 2.97852e+12 -1.1109e+13 3.29512e+12 5.09987e+12 
12033 1 -49.3912 -10.4985 1.68318 2.97852e+12 -1.19247e+13 4.1107e+12 -3.68725e+12 
33 1 -47.7434 -10.1482 1.68318 2.81956e+12 -1.19516e+13 3.65168e+12 -3.57971e+12 
12059 1 49.3912 -10.4984 1.68318 2.97852e+12 -1.20121e+13 4.19808e+12 3.49099e+12 
59 1 47.7434 -10.1481 1.68318 2.81956e+12 -1.20306e+13 3.73062e+12 3.4024e+12 
32 1 -48.5426 -5.10208 1.68318 2.8195e+12 -1.25246e+13 4.2255e+12 -1.87926e+12 
12032 1 -50.218 -5.27815 1.68318 2.97845e+12 -1.25153e+13 4.70214e+12 -1.93953e+12 
31 1 -48.81 -3.2639e-05 1.68318 2.81962e+12 -1.27336e+13 4.43323e+12 -9.70503e+10 
12031 1 -50.4946 -3.42058e-05 1.68318 2.97855e+12 -1.27318e+13 4.91725e+12 -1.07416e+11 
60 1 48.5426 -5.10201 1.68318 2.8195e+12 -1.25649e+13 4.26586e+12 1.68941e+12 
12060 1 50.218 -5.27808 1.68318 2.97845e+12 -1.256e+13 4.74679e+12 1.72939e+12 
12104 1 -10.4984 -49.3912 6.73252 4.32127e+12 6.09625e+12 -1.18752e+13 -4.00067e+12 
12164 1 -10.4984 -49.3912 11.7819 4.32132e+12 6.09629e+12 -1.18752e+13 -4.00068e+12 
105 1 -5.10204 -48.5426 6.73252 4.09593e+12 6.09635e+12 -1.25193e+13 -1.97831e+12 
12105 1 -5.27812 -50.218 6.73252 4.3212e+12 6.73169e+12 -1.25098e+13 -2.04483e+12 
165 1 -5.10204 -48.5426 11.7819 4.09598e+12 6.09638e+12 -1.25193e+13 -1.97832e+12 
12165 1 -5.27812 -50.218 11.7819 4.32124e+12 6.73173e+12 -1.25098e+13 -2.04483e+12 
106 1 -2.27374e-13 -48.81 6.73252 4.09605e+12 6.30429e+12 -1.27286e+13 3.13862e+06 
12106 1 -2.27374e-13 -50.4946 6.73252 4.3213e+12 6.94658e+12 -1.27261e+13 3.4321e+06 
166 1 -2.27374e-13 -48.81 11.7819 4.0961e+12 6.30432e+12 -1.27286e+13 286.567 
12166 1 -2.27374e-13 -50.4946 11.7819 4.32135e+12 6.94662e+12 -1.27261e+13 -207.904 
107 1 5.10204 -48.5426 6.73252 4.09593e+12 6.09634e+12 -1.25193e+13 1.97832e+12 
12107 1 5.27812 -50.218 6.73252 4.3212e+12 6.73169e+12 -1.25098e+13 2.04483e+12 
167 1 5.10204 -48.5426 11.7819 4.09598e+12 6.09638e+12 -1.25193e+13 1.97832e+12 
12167 1 5.27812 -50.218 11.7819 4.32124e+12 6.73173e+12 -1.25098e+13 2.04483e+12 
12108 1 10.4984 -49.3912 6.73252 4.32127e+12 6.09625e+12 -1.18752e+13 4.00067e+12 
12168 1 10.4984 -49.3912 11.7819 4.32132e+12 6.09629e+12 -1.18752e+13 4.00068e+12 
12101 1 -25.2473 -43.7296 6.73252 4.32137e+12 2.02824e+12 -7.80839e+12 -8.51882e+12 
12161 1 -25.2473 -43.7296 11.7819 4.32141e+12 2.02827e+12 -7.80837e+12 -8.51884e+12 
12102 1 -20.538 -46.1291 6.73252 4.32136e+12 3.69192e+12 -9.47194e+12 -7.31008e+12 
102 1 -19.8528 -44.5902 6.73252 4.09609e+12 3.15543e+12 -9.58031e+12 -7.07234e+12 
12103 1 -15.6037 -48.0232 6.73252 4.32127e+12 5.06808e+12 -1.0847e+13 -5.78151e+12 
12162 1 -20.538 -46.1291 11.7819 4.3214e+12 3.69195e+12 -9.47193e+12 -7.3101e+12 
162 1 -19.8528 -44.5902 11.7819 4.09613e+12 3.15546e+12 -9.58031e+12 -7.07235e+12 
12163 1 -15.6037 -48.0232 11.7819 4.32131e+12 5.06811e+12 -1.0847e+13 -5.78153e+12 
103 1 -15.0831 -46.4211 6.73252 4.09599e+12 4.48681e+12 -1.09106e+13 -5.59346e+12 
104 1 -10.1482 -47.7434 6.73252 4.09599e+12 5.48153e+12 -1.19054e+13 -3.87053e+12 
163 1 -15.0831 -46.4211 11.7819 4.09603e+12 4.48684e+12 -1.09106e+13 -5.59347e+12 
164 1 -10.1482 -47.7434 11.7819 4.09603e+12 5.48157e+12 -1.19054e+13 -3.87054e+12 
108 1 10.1482 -47.7434 6.73252 4.09599e+12 5.48153e+12 -1.19054e+13 3.87054e+12 
109 1 15.0831 -46.4211 6.73252 4.09599e+12 4.48681e+12 -1.09106e+13 5.59347e+12 
168 1 10.1482 -47.7434 11.7819 4.09603e+12 5.48157e+12 -1.19054e+13 3.87054e+12 
169 1 15.0831 -46.4211 11.7819 4.09603e+12 4.48684e+12 -1.09106e+13 5.59347e+12 
110 1 19.8528 -44.5902 6.73252 4.09609e+12 3.15543e+12 -9.58031e+12 7.07234e+12 
12109 1 15.6037 -48.0232 6.73252 4.32127e+12 5.06807e+12 -1.0847e+13 5.78152e+12 
12110 1 20.538 -46.1291 6.73252 4.32136e+12 3.69192e+12 -9.47193e+12 7.31009e+12 
170 1 19.8528 -44.5902 11.7819 4.09613e+12 3.15546e+12 -9.58031e+12 7.07235e+12 
12169 1 15.6037 -48.0232 11.7819 4.32131e+12 5.06811e+12 -1.0847e+13 5.78153e+12 
12170 1 20.538 -46.1291 11.7819 4.3214e+12 3.69195e+12 -9.47193e+12 7.3101e+12 
12111 1 25.2473 -43.7296 6.73252 4.32137e+12 2.02824e+12 -7.80838e+12 8.51883e+12 
12171 1 25.2473 -43.7296 11.7819 4.32141e+12 2.02827e+12 -7.80837e+12 8.51884e+12 
12099 1 -33.7875 -37.5248 6.73252 4.32137e+12 -1.86197e+12 -3.91836e+12 -9.78287e+12 
12159 1 -33.7875 -37.5248 11.7819 4.32142e+12 -1.86196e+12 -3.91834e+12 -9.78289e+12 
12100 1 -29.68 -40.851 6.73252 4.32126e+12 1.50065e+11 -5.92887e+12 -9.35462e+12 
100 1 -28.6898 -39.4881 6.73252 4.09599e+12 -2.71224e+11 -6.15245e+12 -9.05037e+12 
12160 1 -29.68 -40.851 11.7819 4.32131e+12 1.50087e+11 -5.92886e+12 -9.35464e+12 
160 1 -28.6898 -39.4881 11.7819 4.09604e+12 -2.71203e+11 -6.15244e+12 -9.05038e+12 
101 1 -24.405 -42.2707 6.73252 4.0961e+12 1.54586e+12 -7.97085e+12 -8.24178e+12 
161 1 -24.405 -42.2707 11.7819 4.09615e+12 1.54588e+12 -7.97084e+12 -8.2418e+12 
111 1 24.405 -42.2707 6.73252 4.0961e+12 1.54585e+12 -7.97085e+12 8.24178e+12 
171 1 24.405 -42.2707 11.7819 4.09615e+12 1.54588e+12 -7.97084e+12 8.2418e+12 
12112 1 29.68 -40.851 6.73252 4.32126e+12 1.50058e+11 -5.92887e+12 9.35462e+12 
112 1 28.6898 -39.4881 6.73252 4.09599e+12 -2.7123e+11 -6.15245e+12 9.05037e+12 
12172 1 29.68 -40.851 11.7819 4.32131e+12 1.50087e+11 -5.92886e+12 9.35464e+12 
172 1 28.6898 -39.4881 11.7819 4.09604e+12 -2.71203e+11 -6.15244e+12 9.05038e+12 
12113 1 33.7875 -37.5248 6.73252 4.32137e+12 -1.86198e+12 -3.91836e+12 9.78287e+12 
12173 1 33.7875 -37.5248 11.7819 4.32142e+12 -1.86196e+12 -3.91834e+12 9.78289e+12 
98 1 -36.2729 -32.6603 6.73252 4.09611e+12 -4.20735e+12 -2.21784e+12 -9.46472e+12 
12098 1 -37.5248 -33.7875 6.73252 4.32137e+12 -3.91836e+12 -1.86198e+12 -9.78287e+12 
158 1 -36.2729 -32.6603 11.7819 4.09615e+12 -4.20734e+12 -2.21781e+12 -9.46473e+12 
12158 1 -37.5248 -33.7875 11.7819 4.32142e+12 -3.91834e+12 -1.86196e+12 -9.78289e+12 
99 1 -32.6603 -36.2729 6.73252 4.09611e+12 -2.21783e+12 -4.20736e+12 -9.46472e+12 
159 1 -32.6603 -36.2729 11.7819 4.09615e+12 -2.21781e+12 -4.20734e+12 -9.46473e+12 
113 1 32.6603 -36.2729 6.73252 4.09611e+12 -2.21784e+12 -4.20735e+12 9.46472e+12 
173 1 32.6603 -36.2729 11.7819 4.09615e+12 -2.21781e+12 -4.20734e+12 9.46473e+12 
114 1 36.2729 -32.6603 6.73252 4.09611e+12 -4.20736e+12 -2.21783e+12 9.46472e+12 
12114 1 37.5248 -33.7875 6.73252 4.32137e+12 -3.91836e+12 -1.86197e+12 9.78287e+12 
174 1 36.2729 -32.6603 11.7819 4.09615e+12 -4.20734e+12 -2.21781e+12 9.46473e+12 
12174 1 37.5248 -33.7875 11.7819 4.32142e+12 -3.91834e+12 -1.86196e+12 9.78289e+12 
96 1 -42.2707 -24.405 6.73252 4.0961e+12 -7.97085e+12 1.54585e+12 -8.24178e+12 
12096 1 -43.7296 -25.2473 6.73252 4.32137e+12 -7.80838e+12 2.02824e+12 -8.51883e+12 
12097 1 -40.851 -29.68 6.73252 4.32126e+12 -5.92887e+12 1.50058e+11 -9.35462e+12 
97 1 -39.4881 -28.6898 6.73252 4.09599e+12 -6.15245e+12 -2.7123e+11 -9.05037e+12 
156 1 -42.2707 -24.405 11.7819 4.09615e+12 -7.97084e+12 1.54588e+12 -8.2418e+12 
12156 1 -43.7296 -25.2473 11.7819 4.32141e+12 -7.80837e+12 2.02827e+12 -8.51884e+12 
12157 1 -40.851 -29.68 11.7819 4.32131e+12 -5.92886e+12 1.50087e+11 -9.35464e+12 
157 1 -39.4881 -28.6898 11.7819 4.09604e+12 -6.15244e+12 -2.71203e+11 -9.05038e+12 
115 1 39.4881 -28.6898 6.73252 4.09599e+12 -6.15245e+12 -2.71224e+11 9.05037e+12 
116 1 42.2707 -24.405 6.73252 4.0961e+12 -7.97085e+12 1.54586e+12 8.24178e+12 
12115 1 40.851 -29.68 6.73252 4.32126e+12 -5.92887e+12 1.50065e+11 9.35462e+12 
12116 1 43.7296 -25.2473 6.73252 4.32137e+12 -7.80839e+12 2.02824e+12 8.51882e+12 
175 1 39.4881 -28.6898 11.7819 4.09604e+12 -6.15244e+12 -2.71203e+11 9.05038e+12 
176 1 42.2707 -24.405 11.7819 4.09615e+12 -7.97084e+12 1.54588e+12 8.2418e+12 
12175 1 40.851 -29.68 11.7819 4.32131e+12 -5.92886e+12 1.50087e+11 9.35464e+12 
12176 1 43.7296 -25.2473 11.7819 4.32141e+12 -7.80837e+12 2.02827e+12 8.51884e+12 
12095 1 -46.1291 -20.538 6.73252 4.32136e+12 -9.47193e+12 3.69192e+12 -7.31009e+12 
12155 1 -46.1291 -20.538 11.7819 4.3214e+12 -9.47193e+12 3.69195e+12 -7.3101e+12 
95 1 -44.5902 -19.8528 6.73252 4.09609e+12 -9.58031e+12 3.15543e+12 -7.07234e+12 
155 1 -44.5902 -19.8528 11.7819 4.09613e+12 -9.58031e+12 3.15546e+12 -7.07235e+12 
117 1 44.5902 -19.8528 6.73252 4.09609e+12 -9.58031e+12 3.15543e+12 7.07234e+12 
177 1 44.5902 -19.8528 11.7819 4.09613e+12 -9.58031e+12 3.15546e+12 7.07235e+12 
12117 1 46.1291 -20.538 6.73252 4.32136e+12 -9.47194e+12 3.69192e+12 7.31008e+12 
12177 1 46.1291 -20.538 11.7819 4.3214e+12 -9.47193e+12 3.69195e+12 7.3101e+12 
94 1 -46.4211 -15.0831 6.73252 4.09599e+12 -1.09106e+13 4.48681e+12 -5.59347e+12 
12094 1 -48.0232 -15.6037 6.73252 4.32127e+12 -1.0847e+13 5.06807e+12 -5.78152e+12 
154 1 -46.4211 -15.0831 11.7819 4.09603e+12 -1.09106e+13 4.48684e+12 -5.59347e+12 
12154 1 -48.0232 -15.6037 11.7819 4.32131e+12 -1.0847e+13 5.06811e+12 -5.78153e+12 
118 1 46.4211 -15.0831 6.73252 4.09599e+12 -1.09106e+13 4.48681e+12 5.59346e+12 
12118 1 48.0232 -15.6037 6.73252 4.32127e+12 -1.0847e+13 5.06808e+12 5.78151e+12 
178 1 46.4211 -15.0831 11.7819 4.09603e+12 -1.09106e+13 4.48684e+12 5.59347e+12 
12178 1 48.0232 -15.6037 11.7819 4.32131e+12 -1.0847e+13 5.06811e+12 5.78153e+12 
12093 1 -49.3912 -10.4984 6.73252 4.32127e+12 -1.18752e+13 6.09625e+12 -4.00067e+12 
93 1 -47.7434 -10.1482 6.73252 4.09599e+12 -1.19054e+13 5.48153e+12 -3.87054e+12 
12153 1 -49.3912 -10.4984 11.7819 4.32132e+12 -1.18752e+13 6.09629e+12 -4.00068e+12 
153 1 -47.7434 -10.1482 11.7819 4.09603e+12 -1.19054e+13 5.48157e+12 -3.87054e+12 
12119 1 49.3912 -10.4984 6.73252 4.32127e+12 -1.18752e+13 6.09625e+12 4.00067e+12 
119 1 47.7434 -10.1482 6.73252 4.09599e+12 -1.19054e+13 5.48153e+12 3.87053e+12 
12179 1 49.3912 -10.4984 11.7819 4.32132e+12 -1.18752e+13 6.09629e+12 4.00068e+12 
179 1 47.7434 -10.1482 11.7819 4.09603e+12 -1.19054e+13 5.48157e+12 3.87054e+12 
92 1 -48.5426 -5.10204 6.73252 4.09593e+12 -1.25193e+13 6.09634e+12 -1.97832e+12 
12092 1 -50.218 -5.27812 6.73252 4.3212e+12 -1.25098e+13 6.73169e+12 -2.04483e+12 
152 1 -48.5426 -5.10204 11.7819 4.09598e+12 -1.25193e+13 6.09638e+12 -1.97832e+12 
12152 1 -50.218 -5.27812 11.7819 4.32124e+12 -1.25098e+13 6.73173e+12 -2.04483e+12 
91 1 -48.81 -2.27374e-13 6.73252 4.09605e+12 -1.27286e+13 6.30429e+12 -3.13903e+06 
151 1 -48.81 -2.27374e-13 11.7819 4.0961e+12 -1.27286e+13 6.30432e+12 214.145 
12151 1 -50.4946 -2.27374e-13 11.7819 4.32135e+12 -1.27261e+13 6.94662e+12 -22.3495 
12091 1 -50.4946 -2.27374e-13 6.73252 4.3213e+12 -1.27261e+13 6.94658e+12 -3.43247e+06 
120 1 48.5426 -5.10204 6.73252 4.09593e+12 -1.25193e+13 6.09635e+12 1.97831e+12 
12120 1 50.218 -5.27812 6.73252 4.3212e+12 -1.25098e+13 6.73169e+12 2.04483e+12 
180 1 48.5426 -5.10204 11.7819 4.09598e+12 -1.25193e+13 6.09638e+12 1.97832e+12 
12180 1 50.218 -5.27812 11.7819 4.32124e+12 -1.25098e+13 6.73173e+12 2.04483e+12 
12061 1 50.4946 -2.27374e-13 6.73252 4.3213e+12 -1.27261e+13 6.94658e+12 -3.4321e+06 
121 1 48.81 -2.27374e-13 11.7819 4.0961e+12 -1.27286e+13 6.30432e+12 -300.519 
12121 1 50.4946 -2.27374e-13 11.7819 4.32135e+12 -1.27261e+13 6.94662e+12 200.189 
61 1 48.81 -2.27374e-13 6.73252 4.09605e+12 -1.27286e+13 6.30429e+12 -3.13877e+06 
12224 1 -10.4984 -49.3912 16.8313 4.32132e+12 6.09629e+12 -1.18752e+13 -4.00068e+12 
225 1 -5.10204 -48.5426 16.8313 4.09598e+12 6.09638e+12 -1.25193e+13 -1.97832e+12 
12225 1 -5.27812 -50.218 16.8313 4.32124e+12 6.73173e+12 -1.25098e+13 -2.04483e+12 
226 1 -2.27374e-13 -48.81 16.8313 4.0961e+12 6.30432e+12 -1.27286e+13 285.709 
12226 1 -2.27374e-13 -50.4946 16.8313 4.32135e+12 6.94662e+12 -1.27261e+13 92.0243 
227 1 5.10204 -48.5426 16.8313 4.09598e+12 6.09638e+12 -1.25193e+13 1.97832e+12 
12227 1 5.27812 -50.218 16.8313 4.32124e+12 6.73173e+12 -1.25098e+13 2.04483e+12 
12228 1 10.4984 -49.3912 16.8313 4.32132e+12 6.09629e+12 -1.18752e+13 4.00068e+12 
12221 1 -25.2473 -43.7296 16.8313 4.32141e+12 2.02827e+12 -7.80837e+12 -8.51884e+12 
12222 1 -20.538 -46.1291 16.8313 4.3214e+12 3.69195e+12 -9.47193e+12 -7.3101e+12 
222 1 -19.8528 -44.5902 16.8313 4.09613e+12 3.15546e+12 -9.58031e+12 -7.07235e+12 
12223 1 -15.6037 -48.0232 16.8313 4.32131e+12 5.06811e+12 -1.0847e+13 -5.78153e+12 
223 1 -15.0831 -46.4211 16.8313 4.09603e+12 4.48684e+12 -1.09106e+13 -5.59347e+12 
224 1 -10.1482 -47.7434 16.8313 4.09603e+12 5.48157e+12 -1.19054e+13 -3.87054e+12 
228 1 10.1482 -47.7434 16.8313 4.09603e+12 5.48157e+12 -1.19054e+13 3.87054e+12 
229 1 15.0831 -46.4211 16.8313 4.09603e+12 4.48684e+12 -1.09106e+13 5.59347e+12 
230 1 19.8528 -44.5902 16.8313 4.09613e+12 3.15546e+12 -9.58031e+12 7.07235e+12 
12229 1 15.6037 -48.0232 16.8313 4.32131e+12 5.06811e+12 -1.0847e+13 5.78153e+12 
12230 1 20.538 -46.1291 16.8313 4.3214e+12 3.69195e+12 -9.47193e+12 7.3101e+12 
12231 1 25.2473 -43.7296 16.8313 4.32141e+12 2.02827e+12 -7.80837e+12 8.51884e+12 
12219 1 -33.7875 -37.5248 16.8313 4.32142e+12 -1.86196e+12 -3.91834e+12 -9.78289e+12 
12220 1 -29.68 -40.851 16.8313 4.32131e+12 1.50087e+11 -5.92886e+12 -9.35464e+12 
220 1 -28.6898 -39.4881 16.8313 4.09604e+12 -2.71203e+11 -6.15244e+12 -9.05038e+12 
221 1 -24.405 -42.2707 16.8313 4.09615e+12 1.54588e+12 -7.97084e+12 -8.2418e+12 
231 1 24.405 -42.2707 16.8313 4.09615e+12 1.54588e+12 -7.97084e+12 8.2418e+12 
12232 1 29.68 -40.851 16.8313 4.32131e+12 1.50087e+11 -5.92886e+12 9.35464e+12 
232 1 28.6898 -39.4881 16.8313 4.09604e+12 -2.71203e+11 -6.15244e+12 9.05038e+12 
12233 1 33.7875 -37.5248 16.8313 4.32142e+12 -1.86196e+12 -3.91834e+12 9.78289e+12 
218 1 -36.2729 -32.6603 16.8313 4.09615e+12 -4.20734e+12 -2.21781e+12 -9.46473e+12 
12218 1 -37.5248 -33.7875 16.8313 4.32142e+12 -3.91834e+12 -1.86196e+12 -9.78289e+12 
219 1 -32.6603 -36.2729 16.8313 4.09615e+12 -2.21781e+12 -4.20734e+12 -9.46473e+12 
233 1 32.6603 -36.2729 16.8313 4.09615e+12 -2.21781e+12 -4.20734e+12 9.46473e+12 
234 1 36.2729 -32.6603 16.8313 4.09615e+12 -4.20734e+12 -2.21781e+12 9.46473e+12 
12234 1 37.5248 -33.7875 16.8313 4.32142e+12 -3.91834e+12 -1.86196e+12 9.78289e+12 
216 1 -42.2707 -24.405 16.8313 4.09615e+12 -7.97084e+12 1.54588e+12 -8.2418e+12 
12216 1 -43.7296 -25.2473 16.8313 4.32141e+12 -7.80837e+12 2.02827e+12 -8.51884e+12 
12217 1 -40.851 -29.68 16.8313 4.32131e+12 -5.92886e+12 1.50087e+11 -9.35464e+12 
217 1 -39.4881 -28.6898 16.8313 4.09604e+12 -6.15244e+12 -2.71203e+11 -9.05038e+12 
235 1 39.4881 -28.6898 16.8313 4.09604e+12 -6.15244e+12 -2.71203e+11 9.05038e+12 
236 1 42.2707 -24.405 16.8313 4.09615e+12 -7.97084e+12 1.54588e+12 8.2418e+12 
12235 1 40.851 -29.68 16.8313 4.32131e+12 -5.92886e+12 1.50087e+11 9.35464e+12 
12236 1 43.7296 -25.2473 16.8313 4.32141e+12 -7.80837e+12 2.02827e+12 8.51884e+12 
12215 1 -46.1291 -20.538 16.8313 4.3214e+12 -9.47193e+12 3.69195e+12 -7.3101e+12 
215 1 -44.5902 -19.8528 16.8313 4.09613e+12 -9.58031e+12 3.15546e+12 -7.07235e+12 
237 1 44.5902 -19.8528 16.8313 4.09613e+12 -9.58031e+12 3.15546e+12 7.07235e+12 
12237 1 46.1291 -20.538 16.8313 4.3214e+12 -9.47193e+12 3.69195e+12 7.3101e+12 
214 1 -46.4211 -15.0831 16.8313 4.09603e+12 -1.09106e+13 4.48684e+12 -5.59347e+12 
12214 1 -48.0232 -15.6037 16.8313 4.32131e+12 -1.0847e+13 5.06811e+12 -5.78153e+12 
238 1 46.4211 -15.0831 16.8313 4.09603e+12 -1.09106e+13 4.48684e+12 5.59347e+12 
12238 1 48.0232 -15.6037 16.8313 4.32131e+12 -1.0847e+13 5.06811e+12 5.78153e+12 
12213 1 -49.3912 -10.4984 16.8313 4.32132e+12 -1.18752e+13 6.09629e+12 -4.00068e+12 
213 1 -47.7434 -10.1482 16.8313 4.09603e+12 -1.19054e+13 5.48157e+12 -3.87054e+12 
12239 1 49.3912 -10.4984 16.8313 4.32132e+12 -1.18752e+13 6.09629e+12 4.00068e+12 
239 1 47.7434 -10.1482 16.8313 4.09603e+12 -1.19054e+13 5.48157e+12 3.87054e+12 
212 1 -48.5426 -5.10204 16.8313 4.09598e+12 -1.25193e+13 6.09638e+12 -1.97832e+12 
12212 1 -50.218 -5.27812 16.8313 4.32124e+12 -1.25098e+13 6.73173e+12 -2.04483e+12 
211 1 -48.81 -2.27374e-13 16.8313 4.0961e+12 -1.27286e+13 6.30432e+12 -35.4628 
12211 1 -50.4946 -2.27374e-13 16.8313 4.32135e+12 -1.27261e+13 6.94662e+12 -234.08 
240 1 48.5426 -5.10204 16.8313 4.09598e+12 -1.25193e+13 6.09638e+12 1.97832e+12 
12240 1 50.218 -5.27812 16.8313 4.32124e+12 -1.25098e+13 6.73173e+12 2.04483e+12 
181 1 48.81 -2.27374e-13 16.8313 4.0961e+12 -1.27286e+13 6.30432e+12 -238.223 
12181 1 50.4946 -2.27374e-13 16.8313 4.32135e+12 -1.27261e+13 6.94662e+12 -124.686 
12284 1 -10.4984 -49.3912 21.8807 4.32132e+12 6.09629e+12 -1.18752e+13 -4.00068e+12 
285 1 -5.10204 -48.5426 21.8807 4.09598e+12 6.09638e+12 -1.25193e+13 -1.97832e+12 
12285 1 -5.27812 -50.218 21.8807 4.32124e+12 6.73173e+12 -1.25098e+13 -2.04483e+12 
286 1 -2.27374e-13 -48.81 21.8807 4.0961e+12 6.30432e+12 -1.27286e+13 260.904 
12286 1 -2.27374e-13 -50.4946 21.8807 4.32135e+12 6.94662e+12 -1.27261e+13 -261.344 
287 1 5.10204 -48.5426 21.8807 4.09598e+12 6.09638e+12 -1.25193e+13 1.97832e+12 
12287 1 5.27812 -50.218 21.8807 4.32124e+12 6.73173e+12 -1.25098e+13 2.04483e+12 
12288 1 10.4984 -49.3912 21.8807 4.32132e+12 6.09629e+12 -1.18752e+13 4.00068e+12 
12281 1 -25.2473 -43.7296 21.8807 4.32141e+12 2.02827e+12 -7.80837e+12 -8.51884e+12 
12282 1 -20.538 -46.1291 21.8807 4.3214e+12 3.69195e+12 -9.47193e+12 -7.3101e+12 
282 1 -19.8528 -44.5902 21.8807 4.09613e+12 3.15546e+12 -9.58031e+12 -7.07235e+12 
12283 1 -15.6037 -48.0232 21.8807 4.32131e+12 5.06811e+12 -1.0847e+13 -5.78153e+12 
283 1 -15.0831 -46.4211 21.8807 4.09603e+12 4.48684e+12 -1.09106e+13 -5.59347e+12 
284 1 -10.1482 -47.7434 21.8807 4.09603e+12 5.48157e+12 -1.19054e+13 -3.87054e+12 
288 1 10.1482 -47.7434 21.8807 4.09603e+12 5.48157e+12 -1.19054e+13 3.87054e+12 
289 1 15.0831 -46.4211 21.8807 4.09603e+12 4.48684e+12 -1.09106e+13 5.59347e+12 
290 1 19.8528 -44.5902 21.8807 4.09613e+12 3.15546e+12 -9.58031e+12 7.07235e+12 
12289 1 15.6037 -48.0232 21.8807 4.32131e+12 5.06811e+12 -1.0847e+13 5.78153e+12 
12290 1 20.538 -46.1291 21.8807 4.3214e+12 3.69195e+12 -9.47193e+12 7.3101e+12 
12291 1 25.2473 -43.7296 21.8807 4.32141e+12 2.02827e+12 -7.80837e+12 8.51884e+12 
12279 1 -33.7875 -37.5248 21.8807 4.32142e+12 -1.86196e+12 -3.91834e+12 -9.78289e+12 
12280 1 -29.68 -40.851 21.8807 4.32131e+12 1.50087e+11 -5.92886e+12 -9.35464e+12 
280 1 -28.6898 -39.4881 21.8807 4.09604e+12 -2.71203e+11 -6.15244e+12 -9.05038e+12 
281 1 -24.405 -42.2707 21.8807 4.09615e+12 1.54588e+12 -7.97084e+12 -8.2418e+12 
291 1 24.405 -42.2707 21.8807 4.09615e+12 1.54588e+12 -7.97084e+12 8.2418e+12 
12292 1 29.68 -40.851 21.8807 4.32131e+12 1.50087e+11 -5.92886e+12 9.35464e+12 
292 1 28.6898 -39.4881 21.8807 4.09604e+12 -2.71203e+11 -6.15244e+12 9.05038e+12 
12293 1 33.7875 -37.5248 21.8807 4.32142e+12 -1.86196e+12 -3.91834e+12 9.78289e+12 
278 1 -36.2729 -32.6603 21.8807 4.09615e+12 -4.20734e+12 -2.21781e+12 -9.46473e+12 
12278 1 -37.5248 -33.7875 21.8807 4.32142e+12 -3.91834e+12 -1.86196e+12 -9.78289e+12 
279 1 -32.6603 -36.2729 21.8807 4.09615e+12 -2.21781e+12 -4.20734e+12 -9.46473e+12 
293 1 32.6603 -36.2729 21.8807 4.09615e+12 -2.21781e+12 -4.20734e+12 9.46473e+12 
294 1 36.2729 -32.6603 21.8807 4.09615e+12 -4.20734e+12 -2.21781e+12 9.46473e+12 
12294 1 37.5248 -33.7875 21.8807 4.32142e+12 -3.91834e+12 -1.86196e+12 9.78289e+12 
276 1 -42.2707 -24.405 21.8807 4.09615e+12 -7.97084e+12 1.54588e+12 -8.2418e+12 
12276 1 -43.7296 -25.2473 21.8807 4.32141e+12 -7.80837e+12 2.02827e+12 -8.51884e+12 
12277 1 -40.851 -29.68 21.8807 4.32131e+12 -5.92886e+12 1.50087e+11 -9.35464e+12 
277 1 -39.4881 -28.6898 21.8807 4.09604e+12 -6.15244e+12 -2.71203e+11 -9.05038e+12 
295 1 39.4881 -28.6898 21.8807 4.09604e+12 -6.15244e+12 -2.71203e+11 9.05038e+12 
296 1 42.2707 -24.405 21.8807 4.09615e+12 -7.97084e+12 1.54588e+12 8.2418e+12 
12295 1 40.851 -29.68 21.8807 4.32131e+12 -5.92886e+12 1.50087e+11 9.35464e+12 
12296 1 43.7296 -25.2473 21.8807 4.32141e+12 -7.80837e+12 2.02827e+12 8.51884e+12 
12275 1 -46.1291 -20.538 21.8807 4.3214e+12 -9.47193e+12 3.69195e+12 -7.3101e+12 
275 1 -44.5902 -19.8528 21.8807 4.09613e+12 -9.58031e+12 3.15546e+12 -7.07235e+12 
297 1 44.5902 -19.8528 21.8807 4.09613e+12 -9.58031e+12 3.15546e+12 7.07235e+12 
12297 1 46.1291 -20.538 21.8807 4.3214e+12 -9.47193e+12 3.69195e+12 7.3101e+12 
274 1 -46.4211 -15.0831 21.8807 4.09603e+12 -1.09106e+13 4.48684e+12 -5.59347e+12 
12274 1 -48.0232 -15.6037 21.8807 4.32131e+12 -1.0847e+13 5.06811e+12 -5.78153e+12 
298 1 46.4211 -15.0831 21.8807 4.09603e+12 -1.09106e+13 4.48684e+12 5.59347e+12 
12298 1 48.0232 -15.6037 21.8807 4.32131e+12 -1.0847e+13 5.06811e+12 5.78153e+12 
12273 1 -49.3912 -10.4984 21.8807 4.32132e+12 -1.18752e+13 6.09629e+12 -4.00068e+12 
273 1 -47.7434 -10.1482 21.8807 4.09603e+12 -1.19054e+13 5.48157e+12 -3.87054e+12 
12299 1 49.3912 -10.4984 21.8807 4.32132e+12 -1.18752e+13 6.09629e+12 4.00068e+12 
299 1 47.7434 -10.1482 21.8807 4.09603e+12 -1.19054e+13 5.48157e+12 3.87054e+12 
272 1 -48.5426 -5.10204 21.8807 4.09598e+12 -1.25193e+13 6.09638e+12 -1.97832e+12 
12272 1 -50.218 -5.27812 21.8807 4.32124e+12 -1.25098e+13 6.73173e+12 -2.04483e+12 
271 1 -48.81 -2.27374e-13 21.8807 4.0961e+12 -1.27286e+13 6.30432e+12 -55.3992 
12271 1 -50.4946 -2.27374e-13 21.8807 4.32135e+12 -1.27261e+13 6.94662e+12 -214.778 
300 1 48.5426 -5.10204 21.8807 4.09598e+12 -1.25193e+13 6.09638e+12 1.97832e+12 
12300 1 50.218 -5.27812 21.8807 4.32124e+12 -1.25098e+13 6.73173e+12 2.04483e+12 
241 1 48.81 -2.27374e-13 21.8807 4.0961e+12 -1.27286e+13 6.30432e+12 157.551 
12241 1 50.4946 -2.27374e-13 21.8807 4.32135e+12 -1.27261e+13 6.94662e+12 276.192 
12344 1 -10.4984 -49.3912 26.9301 4.32132e+12 6.09629e+12 -1.18752e+13 -4.00068e+12 
345 1 -5.10204 -48.5426 26.9301 4.09598e+12 6.09638e+12 -1.25193e+13 -1.97832e+12 
12345 1 -5.27812 -50.218 26.9301 4.32124e+12 6.73173e+12 -1.25098e+13 -2.04483e+12 
346 1 -2.27374e-13 -48.81 26.9301 4.0961e+12 6.30432e+12 -1.27286e+13 -65.7408 
12346 1 -2.27374e-13 -50.4946 26.9301 4.32135e+12 6.94662e+12 -1.27261e+13 159.025 
347 1 5.10204 -48.5426 26.9301 4.09598e+12 6.09638e+12 -1.25193e+13 1.97832e+12 
12347 1 5.27812 -50.218 26.9301 4.32124e+12 6.73173e+12 -1.25098e+13 2.04483e+12 
12348 1 10.4984 -49.3912 26.9301 4.32132e+12 6.09629e+12 -1.18752e+13 4.00068e+12 
12341 1 -25.2473 -43.7296 26.9301 4.32141e+12 2.02827e+12 -7.80837e+12 -8.51884e+12 
12342 1 -20.538 -46.1291 26.9301 4.3214e+12 3.69195e+12 -9.47193e+12 -7.3101e+12 
342 1 -19.8528 -44.5902 26.9301 4.09613e+12 3.15546e+12 -9.58031e+12 -7.07235e+12 
12343 1 -15.6037 -48.0232 26.9301 4.32131e+12 5.06811e+12 -1.0847e+13 -5.78153e+12 
343 1 -15.0831 -46.4211 26.9301 4.09603e+12 4.48684e+12 -1.09106e+13 -5.59347e+12 
344 1 -10.1482 -47.7434 26.9301 4.09603e+12 5.48157e+12 -1.19054e+13 -3.87054e+12 
348 1 10.1482 -47.7434 26.9301 4.09603e+12 5.48157e+12 -1.19054e+13 3.87054e+12 
349 1 15.0831 -46.4211 26.9301 4.09603e+12 4.48684e+12 -1.09106e+13 5.59347e+12 
350 1 19.8528 -44.5902 26.9301 4.09613e+12 3.15546e+12 -9.58031e+12 7.07235e+12 
12349 1 15.6037 -48.0232 26.9301 4.32131e+12 5.06811e+12 -1.0847e+13 5.78153e+12 
12350 1 20.538 -46.1291 26.9301 4.3214e+12 3.69195e+12 -9.47193e+12 7.3101e+12 
12351 1 25.2473 -43.7296 26.9301 4.32141e+12 2.02827e+12 -7.80837e+12 8.51884e+12 
12339 1 -33.7875 -37.5248 26.9301 4.32142e+12 -1.86196e+12 -3.91834e+12 -9.78289e+12 
12340 1 -29.68 -40.851 26.9301 4.32131e+12 1.50087e+11 -5.92886e+12 -9.35464e+12 
340 1 -28.6898 -39.4881 26.9301 4.09604e+12 -2.71203e+11 -6.15244e+12 -9.05038e+12 
341 1 -24.405 -42.2707 26.9301 4.09615e+12 1.54588e+12 -7.97084e+12 -8.2418e+12 
351 1 24.405 -42.2707 26.9301 4.09615e+12 1.54588e+12 -7.97084e+12 8.2418e+12 
12352 1 29.68 -40.851 26.9301 4.32131e+12 1.50087e+11 -5.92886e+12 9.35464e+12 
352 1 28.6898 -39.4881 26.9301 4.09604e+12 -2.71203e+11 -6.15244e+12 9.05038e+12 
12353 1 33.7875 -37.5248 26.9301 4.32142e+12 -1.86196e+12 -3.91834e+12 9.78289e+12 
338 1 -36.2729 -32.6603 26.9301 4.09615e+12 -4.20734e+12 -2.21781e+12 -9.46473e+12 
12338 1 -37.5248 -33.7875 26.9301 4.32142e+12 -3.91834e+12 -1.86196e+12 -9.78289e+12 
339 1 -32.6603 -36.2729 26.9301 4.09615e+12 -2.21781e+12 -4.20734e+12 -9.46473e+12 
353 1 32.6603 -36.2729 26.9301 4.09615e+12 -2.21781e+12 -4.20734e+12 9.46473e+12 
354 1 36.2729 -32.6603 26.9301 4.09615e+12 -4.20734e+12 -2.21781e+12 9.46473e+12 
12354 1 37.5248 -33.7875 26.9301 4.32142e+12 -3.91834e+12 -1.86196e+12 9.78289e+12 
336 1 -42.2707 -24.405 26.9301 4.09615e+12 -7.97084e+12 1.54588e+12 -8.2418e+12 
12336 1 -43.7296 -25.2473 26.9301 4.32141e+12 -7.80837e+12 2.02827e+12 -8.51884e+12 
12337 1 -40.851 -29.68 26.9301 4.32131e+12 -5.92886e+12 1.50087e+11 -9.35464e+12 
337 1 -39.4881 -28.6898 26.9301 4.09604e+12 -6.15244e+12 -2.71203e+11 -9.05038e+12 
355 1 39.4881 -28.6898 26.9301 4.09604e+12 -6.15244e+12 -2.71203e+11 9.05038e+12 
356 1 42.2707 -24.405 26.9301 4.09615e+12 -7.97084e+12 1.54588e+12 8.2418e+12 
12355 1 40.851 -29.68 26.9301 4.32131e+12 -5.92886e+12 1.50087e+11 9.35464e+12 
12356 1 43.7296 -25.2473 26.9301 4.32141e+12 -7.80837e+12 2.02827e+12 8.51884e+12 
12335 1 -46.1291 -20.538 26.9301 4.3214e+12 -9.47193e+12 3.69195e+12 -7.3101e+12 
335 1 -44.5902 -19.8528 26.9301 4.09613e+12 -9.58031e+12 3.15546e+12 -7.07235e+12 
357 1 44.5902 -19.8528 26.9301 4.09613e+12 -9.58031e+12 3.15546e+12 7.07235e+12 
12357 1 46.1291 -20.538 26.9301 4.3214e+12 -9.47193e+12 3.69195e+12 7.3101e+12 
334 1 -46.4211 -15.0831 26.9301 4.09603e+12 -1.09106e+13 4.48684e+12 -5.59347e+12 
12334 1 -48.0232 -15.6037 26.9301 4.32131e+12 -1.0847e+13 5.06811e+12 -5.78153e+12 
358 1 46.4211 -15.0831 26.9301 4.09603e+12 -1.09106e+13 4.48684e+12 5.59347e+12 
12358 1 48.0232 -15.6037 26.9301 4.32131e+12 -1.0847e+13 5.06811e+12 5.78153e+12 
12333 1 -49.3912 -10.4984 26.9301 4.32132e+12 -1.18752e+13 6.09629e+12 -4.00068e+12 
333 1 -47.7434 -10.1482 26.9301 4.09603e+12 -1.19054e+13 5.48157e+12 -3.87054e+12 