ITEM: TIMESTEP
19000
ITEM: NUMBER OF ATOMS
24000
ITEM: BOX BOUNDS pp pp pp
-1.3460627446593573e+03 1.3460627446593573e+03
-1.3460627446593573e+03 1.3460627446593573e+03
-1.3460627446593573e+03 1.3460627446593573e+03
ITEM: ATOMS id type x y z c_pte c_csym[1] c_csym[2] c_csym[4] 
12044 1 -10.495 -49.3754 1.68267 2.97387e+12 4.19403e+12 -1.19999e+13 -3.48685e+12 
45 1 -5.10028 -48.5263 1.68266 2.81494e+12 4.26104e+12 -1.25522e+13 -1.6882e+12 
12045 1 -5.27638 -50.202 1.68267 2.9738e+12 4.74206e+12 -1.25472e+13 -1.72702e+12 
46 1 5.17741e-05 -48.7936 1.68266 2.81506e+12 4.42835e+12 -1.27208e+13 9.64102e+10 
12046 1 5.42639e-05 -50.4785 1.68267 2.9739e+12 4.91221e+12 -1.27186e+13 1.07907e+11 
47 1 5.10038 -48.5263 1.68266 2.81494e+12 4.22094e+12 -1.25121e+13 1.87679e+12 
12047 1 5.27649 -50.202 1.68267 2.9738e+12 4.6972e+12 -1.25023e+13 1.93813e+12 
12048 1 10.4951 -49.3754 1.68267 2.97387e+12 4.10624e+12 -1.19122e+13 3.68401e+12 
12041 1 -25.2392 -43.7157 1.68267 2.97397e+12 5.97763e+11 -8.40487e+12 -7.58075e+12 
12042 1 -20.5314 -46.1144 1.68267 2.97396e+12 2.07552e+12 -9.88249e+12 -6.47921e+12 
42 1 -19.8461 -44.5752 1.68266 2.8151e+12 1.66277e+12 -9.9558e+12 -6.30789e+12 
12043 1 -15.5987 -48.0079 1.68267 2.97387e+12 3.2921e+12 -1.1098e+13 -5.09414e+12 
43 1 -15.078 -46.4055 1.68266 2.815e+12 2.84742e+12 -1.11394e+13 -4.96186e+12 
44 1 -10.1447 -47.7274 1.68266 2.815e+12 3.72624e+12 -1.20182e+13 -3.39938e+12 
48 1 10.1448 -47.7274 1.68266 2.815e+12 3.64782e+12 -1.19398e+13 3.57553e+12 
49 1 15.0781 -46.4055 1.68266 2.815e+12 2.7341e+12 -1.1026e+13 5.11785e+12 
50 1 19.8462 -44.5752 1.68266 2.8151e+12 1.51948e+12 -9.81251e+12 6.43691e+12 
12049 1 15.5988 -48.0079 1.68267 2.97387e+12 3.16524e+12 -1.09711e+13 5.26875e+12 
12050 1 20.5315 -46.1144 1.68267 2.97396e+12 1.91513e+12 -9.72211e+12 6.62361e+12 
12051 1 25.2393 -43.7156 1.68267 2.97397e+12 4.10862e+11 -8.21796e+12 7.68866e+12 
12039 1 -33.7767 -37.5129 1.68267 2.97398e+12 -2.87485e+12 -4.93244e+12 -8.75629e+12 
12040 1 -29.6705 -40.838 1.68267 2.97386e+12 -1.07627e+12 -6.72951e+12 -8.35034e+12 
40 1 -28.6801 -39.4749 1.68266 2.815e+12 -1.40467e+12 -6.88716e+12 -8.12482e+12 
41 1 -24.3968 -42.2565 1.68266 2.81511e+12 2.24342e+11 -8.51749e+12 -7.3779e+12 
51 1 24.3969 -42.2565 1.68266 2.81511e+12 5.73563e+10 -8.3505e+12 7.47431e+12 
12052 1 29.6706 -40.8379 1.68267 2.97386e+12 -1.28153e+12 -6.52425e+12 8.41704e+12 
52 1 28.6802 -39.4748 1.68266 2.815e+12 -1.58804e+12 -6.70379e+12 8.1844e+12 
12053 1 33.7767 -37.5128 1.68267 2.97397e+12 -3.08949e+12 -4.71781e+12 8.77884e+12 
38 1 -36.2607 -32.6494 1.68266 2.81512e+12 -4.9471e+12 -3.34624e+12 -8.53809e+12 
12038 1 -37.5128 -33.7767 1.68267 2.97397e+12 -4.71781e+12 -3.08949e+12 -8.77884e+12 
39 1 -32.6493 -36.2608 1.68266 2.81512e+12 -3.15448e+12 -5.13885e+12 -8.51794e+12 
53 1 32.6494 -36.2607 1.68266 2.81512e+12 -3.34624e+12 -4.9471e+12 8.53809e+12 
54 1 36.2608 -32.6493 1.68266 2.81512e+12 -5.13885e+12 -3.15448e+12 8.51794e+12 
12054 1 37.5129 -33.7767 1.68267 2.97398e+12 -4.93244e+12 -2.87485e+12 8.75629e+12 
36 1 -42.2565 -24.3969 1.68266 2.81511e+12 -8.3505e+12 5.73563e+10 -7.47431e+12 
12036 1 -43.7156 -25.2393 1.68267 2.97397e+12 -8.21796e+12 4.10862e+11 -7.68866e+12 
12037 1 -40.8379 -29.6706 1.68267 2.97386e+12 -6.52425e+12 -1.28153e+12 -8.41704e+12 
37 1 -39.4748 -28.6802 1.68266 2.815e+12 -6.70379e+12 -1.58804e+12 -8.1844e+12 
55 1 39.4749 -28.6801 1.68266 2.815e+12 -6.88716e+12 -1.40467e+12 8.12482e+12 
56 1 42.2565 -24.3968 1.68266 2.81511e+12 -8.51749e+12 2.24342e+11 7.3779e+12 
12055 1 40.838 -29.6705 1.68267 2.97386e+12 -6.72951e+12 -1.07627e+12 8.35034e+12 
12056 1 43.7157 -25.2392 1.68267 2.97397e+12 -8.40487e+12 5.97763e+11 7.58075e+12 
12035 1 -46.1144 -20.5315 1.68267 2.97396e+12 -9.72211e+12 1.91513e+12 -6.62361e+12 
35 1 -44.5752 -19.8462 1.68266 2.8151e+12 -9.81251e+12 1.51948e+12 -6.43691e+12 
57 1 44.5752 -19.8461 1.68266 2.8151e+12 -9.9558e+12 1.66277e+12 6.30789e+12 
12057 1 46.1144 -20.5314 1.68267 2.97396e+12 -9.88249e+12 2.07552e+12 6.47921e+12 
34 1 -46.4055 -15.0781 1.68266 2.815e+12 -1.1026e+13 2.7341e+12 -5.11785e+12 
12034 1 -48.0079 -15.5988 1.68267 2.97387e+12 -1.09711e+13 3.16524e+12 -5.26875e+12 
58 1 46.4055 -15.078 1.68266 2.815e+12 -1.11394e+13 2.84742e+12 4.96186e+12 
12058 1 48.0079 -15.5987 1.68267 2.97387e+12 -1.1098e+13 3.2921e+12 5.09414e+12 
12033 1 -49.3754 -10.4951 1.68267 2.97387e+12 -1.19122e+13 4.10624e+12 -3.68401e+12 
33 1 -47.7274 -10.1448 1.68266 2.815e+12 -1.19398e+13 3.64782e+12 -3.57553e+12 
12059 1 49.3754 -10.495 1.68267 2.97387e+12 -1.19999e+13 4.19403e+12 3.48685e+12 
59 1 47.7274 -10.1447 1.68266 2.815e+12 -1.20182e+13 3.72624e+12 3.39938e+12 
32 1 -48.5263 -5.10038 1.68266 2.81494e+12 -1.25121e+13 4.22094e+12 -1.87679e+12 
12032 1 -50.202 -5.27649 1.68267 2.9738e+12 -1.25023e+13 4.6972e+12 -1.93813e+12 
31 1 -48.7936 -5.17741e-05 1.68266 2.81506e+12 -1.27208e+13 4.42835e+12 -9.64102e+10 
12031 1 -50.4785 -5.42638e-05 1.68267 2.9739e+12 -1.27186e+13 4.91221e+12 -1.07907e+11 
60 1 48.5263 -5.10028 1.68266 2.81494e+12 -1.25522e+13 4.26104e+12 1.6882e+12 
12060 1 50.202 -5.27638 1.68267 2.9738e+12 -1.25472e+13 4.74206e+12 1.72702e+12 
12104 1 -10.4951 -49.3754 6.73031 4.31496e+12 6.09032e+12 -1.18629e+13 -3.99661e+12 
12164 1 -10.4951 -49.3754 11.778 4.31503e+12 6.09038e+12 -1.18629e+13 -3.99662e+12 
105 1 -5.10033 -48.5263 6.73031 4.08974e+12 6.08996e+12 -1.25068e+13 -1.9763e+12 
12105 1 -5.27643 -50.202 6.73031 4.31489e+12 6.72511e+12 -1.24969e+13 -2.04275e+12 
165 1 -5.10033 -48.5263 11.778 4.08981e+12 6.09002e+12 -1.25068e+13 -1.97631e+12 
12165 1 -5.27643 -50.202 11.778 4.31496e+12 6.72517e+12 -1.24969e+13 -2.04276e+12 
106 1 -2.27374e-13 -48.7936 6.73031 4.08986e+12 6.29769e+12 -1.27158e+13 4.9705e+06 
12106 1 -2.27374e-13 -50.4785 6.73031 4.31499e+12 6.93978e+12 -1.27129e+13 5.44684e+06 
166 1 -2.27374e-13 -48.7936 11.778 4.08993e+12 6.29775e+12 -1.27158e+13 357.88 
12166 1 -2.27374e-13 -50.4785 11.778 4.31506e+12 6.93984e+12 -1.27129e+13 -237.161 
107 1 5.10033 -48.5263 6.73031 4.08974e+12 6.08996e+12 -1.25068e+13 1.97631e+12 
12107 1 5.27643 -50.202 6.73031 4.31489e+12 6.72511e+12 -1.24969e+13 2.04276e+12 
167 1 5.10033 -48.5263 11.778 4.08981e+12 6.09002e+12 -1.25068e+13 1.97631e+12 
12167 1 5.27643 -50.202 11.778 4.31496e+12 6.72517e+12 -1.24969e+13 2.04276e+12 
12108 1 10.4951 -49.3754 6.73031 4.31496e+12 6.09031e+12 -1.18629e+13 3.99662e+12 
12168 1 10.4951 -49.3754 11.778 4.31503e+12 6.09038e+12 -1.18629e+13 3.99662e+12 
12101 1 -25.2392 -43.7157 6.73031 4.31505e+12 2.02644e+12 -7.80022e+12 -8.51018e+12 
12161 1 -25.2392 -43.7157 11.778 4.31513e+12 2.02648e+12 -7.8002e+12 -8.51021e+12 
12102 1 -20.5315 -46.1144 6.73031 4.31505e+12 3.68843e+12 -9.46208e+12 -7.30266e+12 
102 1 -19.8461 -44.5752 6.73031 4.0899e+12 3.15204e+12 -9.57076e+12 -7.06514e+12 
12103 1 -15.5987 -48.0079 6.73031 4.31496e+12 5.06319e+12 -1.08357e+13 -5.77565e+12 
12162 1 -20.5315 -46.1144 11.778 4.31512e+12 3.68847e+12 -9.46207e+12 -7.30269e+12 
162 1 -19.8461 -44.5752 11.778 4.08997e+12 3.15208e+12 -9.57075e+12 -7.06517e+12 
12163 1 -15.5987 -48.0079 11.778 4.31503e+12 5.06324e+12 -1.08357e+13 -5.77567e+12 
103 1 -15.0781 -46.4055 6.73031 4.0898e+12 4.48207e+12 -1.08997e+13 -5.58777e+12 
104 1 -10.1448 -47.7274 6.73031 4.0898e+12 5.47578e+12 -1.18935e+13 -3.8666e+12 
163 1 -15.0781 -46.4055 11.778 4.08987e+12 4.48212e+12 -1.08997e+13 -5.58779e+12 
164 1 -10.1448 -47.7274 11.778 4.08987e+12 5.47583e+12 -1.18935e+13 -3.86662e+12 
108 1 10.1448 -47.7274 6.73031 4.0898e+12 5.47577e+12 -1.18935e+13 3.86661e+12 
109 1 15.0781 -46.4055 6.73031 4.0898e+12 4.48206e+12 -1.08997e+13 5.58778e+12 
168 1 10.1448 -47.7274 11.778 4.08987e+12 5.47583e+12 -1.18935e+13 3.86662e+12 
169 1 15.0781 -46.4055 11.778 4.08987e+12 4.48212e+12 -1.08997e+13 5.58779e+12 
110 1 19.8461 -44.5752 6.73031 4.0899e+12 3.15203e+12 -9.57075e+12 7.06515e+12 
12109 1 15.5987 -48.0079 6.73031 4.31496e+12 5.06318e+12 -1.08357e+13 5.77566e+12 
12110 1 20.5315 -46.1144 6.73031 4.31505e+12 3.68842e+12 -9.46207e+12 7.30267e+12 
170 1 19.8461 -44.5752 11.778 4.08997e+12 3.15208e+12 -9.57075e+12 7.06517e+12 
12169 1 15.5987 -48.0079 11.778 4.31503e+12 5.06324e+12 -1.08357e+13 5.77567e+12 
12170 1 20.5315 -46.1144 11.778 4.31512e+12 3.68847e+12 -9.46207e+12 7.30269e+12 
12111 1 25.2392 -43.7157 6.73031 4.31505e+12 2.02643e+12 -7.80021e+12 8.51019e+12 
12171 1 25.2392 -43.7157 11.778 4.31513e+12 2.02648e+12 -7.8002e+12 8.51021e+12 
12099 1 -33.7767 -37.5128 6.73031 4.31506e+12 -1.85983e+12 -3.91414e+12 -9.77294e+12 
12159 1 -33.7767 -37.5128 11.778 4.31513e+12 -1.85981e+12 -3.91411e+12 -9.77297e+12 
12100 1 -29.6705 -40.838 6.73031 4.31495e+12 1.5016e+11 -5.92262e+12 -9.34513e+12 
100 1 -28.6802 -39.4749 6.73031 4.0898e+12 -2.71134e+11 -6.14639e+12 -9.04117e+12 
12160 1 -29.6705 -40.838 11.778 4.31502e+12 1.50196e+11 -5.92259e+12 -9.34516e+12 
160 1 -28.6802 -39.4749 11.778 4.08987e+12 -2.71101e+11 -6.14636e+12 -9.0412e+12 
101 1 -24.3968 -42.2565 6.73031 4.08991e+12 1.5441e+12 -7.96294e+12 -8.2334e+12 
161 1 -24.3968 -42.2565 11.778 4.08998e+12 1.54414e+12 -7.96292e+12 -8.23343e+12 
111 1 24.3968 -42.2565 6.73031 4.08991e+12 1.54409e+12 -7.96293e+12 8.2334e+12 
171 1 24.3968 -42.2565 11.778 4.08998e+12 1.54414e+12 -7.96292e+12 8.23343e+12 
12112 1 29.6705 -40.838 6.73031 4.31495e+12 1.5015e+11 -5.92261e+12 9.34513e+12 
112 1 28.6802 -39.4749 6.73031 4.0898e+12 -2.71143e+11 -6.14638e+12 9.04117e+12 
12172 1 29.6705 -40.838 11.778 4.31502e+12 1.50196e+11 -5.92259e+12 9.34516e+12 
172 1 28.6802 -39.4749 11.778 4.08987e+12 -2.71101e+11 -6.14636e+12 9.0412e+12 
12113 1 33.7767 -37.5128 6.73031 4.31506e+12 -1.85985e+12 -3.91413e+12 9.77294e+12 
12173 1 33.7767 -37.5128 11.778 4.31513e+12 -1.85981e+12 -3.91411e+12 9.77297e+12 
98 1 -36.2607 -32.6493 6.73031 4.08992e+12 -4.20326e+12 -2.21577e+12 -9.45509e+12 
12098 1 -37.5128 -33.7767 6.73031 4.31506e+12 -3.91413e+12 -1.85985e+12 -9.77294e+12 
158 1 -36.2607 -32.6493 11.778 4.08999e+12 -4.20324e+12 -2.21573e+12 -9.45512e+12 
12158 1 -37.5128 -33.7767 11.778 4.31513e+12 -3.91411e+12 -1.85981e+12 -9.77297e+12 
99 1 -32.6493 -36.2607 6.73031 4.08992e+12 -2.21576e+12 -4.20327e+12 -9.45509e+12 
159 1 -32.6493 -36.2607 11.778 4.08999e+12 -2.21573e+12 -4.20324e+12 -9.45512e+12 
113 1 32.6493 -36.2607 6.73031 4.08992e+12 -2.21577e+12 -4.20326e+12 9.45509e+12 
173 1 32.6493 -36.2607 11.778 4.08999e+12 -2.21573e+12 -4.20324e+12 9.45512e+12 
114 1 36.2607 -32.6493 6.73031 4.08992e+12 -4.20327e+12 -2.21576e+12 9.45509e+12 
12114 1 37.5128 -33.7767 6.73031 4.31506e+12 -3.91414e+12 -1.85983e+12 9.77294e+12 
174 1 36.2607 -32.6493 11.778 4.08999e+12 -4.20324e+12 -2.21573e+12 9.45512e+12 
12174 1 37.5128 -33.7767 11.778 4.31513e+12 -3.91411e+12 -1.85981e+12 9.77297e+12 
96 1 -42.2565 -24.3968 6.73031 4.08991e+12 -7.96293e+12 1.54409e+12 -8.2334e+12 
12096 1 -43.7157 -25.2392 6.73031 4.31505e+12 -7.80021e+12 2.02643e+12 -8.51019e+12 
12097 1 -40.838 -29.6705 6.73031 4.31495e+12 -5.92261e+12 1.5015e+11 -9.34513e+12 
97 1 -39.4749 -28.6802 6.73031 4.0898e+12 -6.14638e+12 -2.71143e+11 -9.04117e+12 
156 1 -42.2565 -24.3968 11.778 4.08998e+12 -7.96292e+12 1.54414e+12 -8.23343e+12 
12156 1 -43.7157 -25.2392 11.778 4.31513e+12 -7.8002e+12 2.02648e+12 -8.51021e+12 
12157 1 -40.838 -29.6705 11.778 4.31502e+12 -5.92259e+12 1.50196e+11 -9.34516e+12 
157 1 -39.4749 -28.6802 11.778 4.08987e+12 -6.14636e+12 -2.71101e+11 -9.0412e+12 
115 1 39.4749 -28.6802 6.73031 4.0898e+12 -6.14639e+12 -2.71134e+11 9.04117e+12 
116 1 42.2565 -24.3968 6.73031 4.08991e+12 -7.96294e+12 1.5441e+12 8.2334e+12 
12115 1 40.838 -29.6705 6.73031 4.31495e+12 -5.92262e+12 1.5016e+11 9.34513e+12 
12116 1 43.7157 -25.2392 6.73031 4.31505e+12 -7.80022e+12 2.02644e+12 8.51018e+12 
175 1 39.4749 -28.6802 11.778 4.08987e+12 -6.14636e+12 -2.71101e+11 9.0412e+12 
176 1 42.2565 -24.3968 11.778 4.08998e+12 -7.96292e+12 1.54414e+12 8.23343e+12 
12175 1 40.838 -29.6705 11.778 4.31502e+12 -5.92259e+12 1.50196e+11 9.34516e+12 
12176 1 43.7157 -25.2392 11.778 4.31513e+12 -7.8002e+12 2.02648e+12 8.51021e+12 
12095 1 -46.1144 -20.5315 6.73031 4.31505e+12 -9.46207e+12 3.68842e+12 -7.30267e+12 
12155 1 -46.1144 -20.5315 11.778 4.31512e+12 -9.46207e+12 3.68847e+12 -7.30269e+12 
95 1 -44.5752 -19.8461 6.73031 4.0899e+12 -9.57075e+12 3.15203e+12 -7.06515e+12 
155 1 -44.5752 -19.8461 11.778 4.08997e+12 -9.57075e+12 3.15208e+12 -7.06517e+12 
117 1 44.5752 -19.8461 6.73031 4.0899e+12 -9.57076e+12 3.15204e+12 7.06514e+12 
177 1 44.5752 -19.8461 11.778 4.08997e+12 -9.57075e+12 3.15208e+12 7.06517e+12 
12117 1 46.1144 -20.5315 6.73031 4.31505e+12 -9.46208e+12 3.68843e+12 7.30266e+12 
12177 1 46.1144 -20.5315 11.778 4.31512e+12 -9.46207e+12 3.68847e+12 7.30269e+12 
94 1 -46.4055 -15.0781 6.73031 4.0898e+12 -1.08997e+13 4.48206e+12 -5.58778e+12 
12094 1 -48.0079 -15.5987 6.73031 4.31496e+12 -1.08357e+13 5.06318e+12 -5.77566e+12 
154 1 -46.4055 -15.0781 11.778 4.08987e+12 -1.08997e+13 4.48212e+12 -5.58779e+12 
12154 1 -48.0079 -15.5987 11.778 4.31503e+12 -1.08357e+13 5.06324e+12 -5.77567e+12 
118 1 46.4055 -15.0781 6.73031 4.0898e+12 -1.08997e+13 4.48207e+12 5.58777e+12 
12118 1 48.0079 -15.5987 6.73031 4.31496e+12 -1.08357e+13 5.06319e+12 5.77565e+12 
178 1 46.4055 -15.0781 11.778 4.08987e+12 -1.08997e+13 4.48212e+12 5.58779e+12 
12178 1 48.0079 -15.5987 11.778 4.31503e+12 -1.08357e+13 5.06324e+12 5.77567e+12 
12093 1 -49.3754 -10.4951 6.73031 4.31496e+12 -1.18629e+13 6.09031e+12 -3.99662e+12 
93 1 -47.7274 -10.1448 6.73031 4.0898e+12 -1.18935e+13 5.47577e+12 -3.86661e+12 
12153 1 -49.3754 -10.4951 11.778 4.31503e+12 -1.18629e+13 6.09038e+12 -3.99662e+12 
153 1 -47.7274 -10.1448 11.778 4.08987e+12 -1.18935e+13 5.47583e+12 -3.86662e+12 
12119 1 49.3754 -10.4951 6.73031 4.31496e+12 -1.18629e+13 6.09032e+12 3.99661e+12 
119 1 47.7274 -10.1448 6.73031 4.0898e+12 -1.18935e+13 5.47578e+12 3.8666e+12 
12179 1 49.3754 -10.4951 11.778 4.31503e+12 -1.18629e+13 6.09038e+12 3.99662e+12 
179 1 47.7274 -10.1448 11.778 4.08987e+12 -1.18935e+13 5.47583e+12 3.86662e+12 
92 1 -48.5263 -5.10033 6.73031 4.08974e+12 -1.25068e+13 6.08996e+12 -1.97631e+12 
12092 1 -50.202 -5.27643 6.73031 4.31489e+12 -1.24969e+13 6.72511e+12 -2.04276e+12 
152 1 -48.5263 -5.10033 11.778 4.08981e+12 -1.25068e+13 6.09002e+12 -1.97631e+12 
12152 1 -50.202 -5.27643 11.778 4.31496e+12 -1.24969e+13 6.72517e+12 -2.04276e+12 
91 1 -48.7936 -2.27374e-13 6.73031 4.08986e+12 -1.27158e+13 6.29769e+12 -4.97099e+06 
151 1 -48.7936 -2.27374e-13 11.778 4.08993e+12 -1.27158e+13 6.29775e+12 252.712 
12151 1 -50.4785 -2.27374e-13 11.778 4.31506e+12 -1.27129e+13 6.93984e+12 -38.7684 
12091 1 -50.4785 -2.27374e-13 6.73031 4.31499e+12 -1.27129e+13 6.93978e+12 -5.44729e+06 
120 1 48.5263 -5.10033 6.73031 4.08974e+12 -1.25068e+13 6.08996e+12 1.9763e+12 
12120 1 50.202 -5.27643 6.73031 4.31489e+12 -1.24969e+13 6.72511e+12 2.04275e+12 
180 1 48.5263 -5.10033 11.778 4.08981e+12 -1.25068e+13 6.09002e+12 1.97631e+12 
12180 1 50.202 -5.27643 11.778 4.31496e+12 -1.24969e+13 6.72517e+12 2.04276e+12 
12061 1 50.4785 -2.27374e-13 6.73031 4.31499e+12 -1.27129e+13 6.93978e+12 -5.44684e+06 
121 1 48.7936 -2.27374e-13 11.778 4.08993e+12 -1.27158e+13 6.29775e+12 -379.529 
12121 1 50.4785 -2.27374e-13 11.778 4.31506e+12 -1.27129e+13 6.93984e+12 229.927 
61 1 48.7936 -2.27374e-13 6.73031 4.08986e+12 -1.27158e+13 6.29769e+12 -4.9707e+06 
12224 1 -10.4951 -49.3754 16.8258 4.31503e+12 6.09038e+12 -1.18629e+13 -3.99662e+12 
225 1 -5.10033 -48.5263 16.8258 4.08981e+12 6.09002e+12 -1.25068e+13 -1.97631e+12 
12225 1 -5.27643 -50.202 16.8258 4.31496e+12 6.72517e+12 -1.24969e+13 -2.04276e+12 
226 1 -2.27374e-13 -48.7936 16.8258 4.08993e+12 6.29775e+12 -1.27158e+13 350.375 
12226 1 -2.27374e-13 -50.4785 16.8258 4.31506e+12 6.93984e+12 -1.27129e+13 114.093 
227 1 5.10033 -48.5263 16.8258 4.08981e+12 6.09002e+12 -1.25068e+13 1.97631e+12 
12227 1 5.27643 -50.202 16.8258 4.31496e+12 6.72517e+12 -1.24969e+13 2.04276e+12 
12228 1 10.4951 -49.3754 16.8258 4.31503e+12 6.09038e+12 -1.18629e+13 3.99662e+12 
12221 1 -25.2392 -43.7157 16.8258 4.31513e+12 2.02648e+12 -7.8002e+12 -8.51021e+12 
12222 1 -20.5315 -46.1144 16.8258 4.31512e+12 3.68847e+12 -9.46207e+12 -7.30269e+12 
222 1 -19.8461 -44.5752 16.8258 4.08997e+12 3.15208e+12 -9.57075e+12 -7.06517e+12 
12223 1 -15.5987 -48.0079 16.8258 4.31503e+12 5.06324e+12 -1.08357e+13 -5.77567e+12 
223 1 -15.0781 -46.4055 16.8258 4.08987e+12 4.48212e+12 -1.08997e+13 -5.58779e+12 
224 1 -10.1448 -47.7274 16.8258 4.08987e+12 5.47583e+12 -1.18935e+13 -3.86662e+12 
228 1 10.1448 -47.7274 16.8258 4.08987e+12 5.47583e+12 -1.18935e+13 3.86662e+12 
229 1 15.0781 -46.4055 16.8258 4.08987e+12 4.48212e+12 -1.08997e+13 5.58779e+12 
230 1 19.8461 -44.5752 16.8258 4.08997e+12 3.15208e+12 -9.57075e+12 7.06517e+12 
12229 1 15.5987 -48.0079 16.8258 4.31503e+12 5.06324e+12 -1.08357e+13 5.77567e+12 
12230 1 20.5315 -46.1144 16.8258 4.31512e+12 3.68847e+12 -9.46207e+12 7.30269e+12 
12231 1 25.2392 -43.7157 16.8258 4.31513e+12 2.02648e+12 -7.8002e+12 8.51021e+12 
12219 1 -33.7767 -37.5128 16.8258 4.31513e+12 -1.85981e+12 -3.91411e+12 -9.77297e+12 
12220 1 -29.6705 -40.838 16.8258 4.31502e+12 1.50196e+11 -5.92259e+12 -9.34516e+12 
220 1 -28.6802 -39.4749 16.8258 4.08987e+12 -2.71101e+11 -6.14636e+12 -9.0412e+12 
221 1 -24.3968 -42.2565 16.8258 4.08998e+12 1.54414e+12 -7.96292e+12 -8.23343e+12 
231 1 24.3968 -42.2565 16.8258 4.08998e+12 1.54414e+12 -7.96292e+12 8.23343e+12 
12232 1 29.6705 -40.838 16.8258 4.31502e+12 1.50196e+11 -5.92259e+12 9.34516e+12 
232 1 28.6802 -39.4749 16.8258 4.08987e+12 -2.71101e+11 -6.14636e+12 9.0412e+12 
12233 1 33.7767 -37.5128 16.8258 4.31513e+12 -1.85981e+12 -3.91411e+12 9.77297e+12 
218 1 -36.2607 -32.6493 16.8258 4.08999e+12 -4.20324e+12 -2.21573e+12 -9.45512e+12 
12218 1 -37.5128 -33.7767 16.8258 4.31513e+12 -3.91411e+12 -1.85981e+12 -9.77297e+12 
219 1 -32.6493 -36.2607 16.8258 4.08999e+12 -2.21573e+12 -4.20324e+12 -9.45512e+12 
233 1 32.6493 -36.2607 16.8258 4.08999e+12 -2.21573e+12 -4.20324e+12 9.45512e+12 
234 1 36.2607 -32.6493 16.8258 4.08999e+12 -4.20324e+12 -2.21573e+12 9.45512e+12 
12234 1 37.5128 -33.7767 16.8258 4.31513e+12 -3.91411e+12 -1.85981e+12 9.77297e+12 
216 1 -42.2565 -24.3968 16.8258 4.08998e+12 -7.96292e+12 1.54414e+12 -8.23343e+12 
12216 1 -43.7157 -25.2392 16.8258 4.31513e+12 -7.8002e+12 2.02648e+12 -8.51021e+12 
12217 1 -40.838 -29.6705 16.8258 4.31502e+12 -5.92259e+12 1.50196e+11 -9.34516e+12 
217 1 -39.4749 -28.6802 16.8258 4.08987e+12 -6.14636e+12 -2.71101e+11 -9.0412e+12 
235 1 39.4749 -28.6802 16.8258 4.08987e+12 -6.14636e+12 -2.71101e+11 9.0412e+12 
236 1 42.2565 -24.3968 16.8258 4.08998e+12 -7.96292e+12 1.54414e+12 8.23343e+12 
12235 1 40.838 -29.6705 16.8258 4.31502e+12 -5.92259e+12 1.50196e+11 9.34516e+12 
12236 1 43.7157 -25.2392 16.8258 4.31513e+12 -7.8002e+12 2.02648e+12 8.51021e+12 
12215 1 -46.1144 -20.5315 16.8258 4.31512e+12 -9.46207e+12 3.68847e+12 -7.30269e+12 
215 1 -44.5752 -19.8461 16.8258 4.08997e+12 -9.57075e+12 3.15208e+12 -7.06517e+12 
237 1 44.5752 -19.8461 16.8258 4.08997e+12 -9.57075e+12 3.15208e+12 7.06517e+12 
12237 1 46.1144 -20.5315 16.8258 4.31512e+12 -9.46207e+12 3.68847e+12 7.30269e+12 
214 1 -46.4055 -15.0781 16.8258 4.08987e+12 -1.08997e+13 4.48212e+12 -5.58779e+12 
12214 1 -48.0079 -15.5987 16.8258 4.31503e+12 -1.08357e+13 5.06324e+12 -5.77567e+12 
238 1 46.4055 -15.0781 16.8258 4.08987e+12 -1.08997e+13 4.48212e+12 5.58779e+12 
12238 1 48.0079 -15.5987 16.8258 4.31503e+12 -1.08357e+13 5.06324e+12 5.77567e+12 
12213 1 -49.3754 -10.4951 16.8258 4.31503e+12 -1.18629e+13 6.09038e+12 -3.99662e+12 
213 1 -47.7274 -10.1448 16.8258 4.08987e+12 -1.18935e+13 5.47583e+12 -3.86662e+12 
12239 1 49.3754 -10.4951 16.8258 4.31503e+12 -1.18629e+13 6.09038e+12 3.99662e+12 
239 1 47.7274 -10.1448 16.8258 4.08987e+12 -1.18935e+13 5.47583e+12 3.86662e+12 
212 1 -48.5263 -5.10033 16.8258 4.08981e+12 -1.25068e+13 6.09002e+12 -1.97631e+12 
12212 1 -50.202 -5.27643 16.8258 4.31496e+12 -1.24969e+13 6.72517e+12 -2.04276e+12 
211 1 -48.7936 -2.27374e-13 16.8258 4.08993e+12 -1.27158e+13 6.29775e+12 -42.5989 
12211 1 -50.4785 -2.27374e-13 16.8258 4.31506e+12 -1.27129e+13 6.93984e+12 -280.14 
240 1 48.5263 -5.10033 16.8258 4.08981e+12 -1.25068e+13 6.09002e+12 1.97631e+12 
12240 1 50.202 -5.27643 16.8258 4.31496e+12 -1.24969e+13 6.72517e+12 2.04276e+12 
181 1 48.7936 -2.27374e-13 16.8258 4.08993e+12 -1.27158e+13 6.29775e+12 -295.082 
12181 1 50.4785 -2.27374e-13 16.8258 4.31506e+12 -1.27129e+13 6.93984e+12 -146.981 
12284 1 -10.4951 -49.3754 21.8735 4.31503e+12 6.09038e+12 -1.18629e+13 -3.99662e+12 
285 1 -5.10033 -48.5263 21.8735 4.08981e+12 6.09002e+12 -1.25068e+13 -1.97631e+12 
12285 1 -5.27643 -50.202 21.8735 4.31496e+12 6.72517e+12 -1.24969e+13 -2.04276e+12 
286 1 -2.27374e-13 -48.7936 21.8735 4.08993e+12 6.29775e+12 -1.27158e+13 320.064 
12286 1 -2.27374e-13 -50.4785 21.8735 4.31506e+12 6.93984e+12 -1.27129e+13 -315.234 
287 1 5.10033 -48.5263 21.8735 4.08981e+12 6.09002e+12 -1.25068e+13 1.97631e+12 
12287 1 5.27643 -50.202 21.8735 4.31496e+12 6.72517e+12 -1.24969e+13 2.04276e+12 
12288 1 10.4951 -49.3754 21.8735 4.31503e+12 6.09038e+12 -1.18629e+13 3.99662e+12 
12281 1 -25.2392 -43.7157 21.8735 4.31513e+12 2.02648e+12 -7.8002e+12 -8.51021e+12 
12282 1 -20.5315 -46.1144 21.8735 4.31512e+12 3.68847e+12 -9.46207e+12 -7.30269e+12 
282 1 -19.8461 -44.5752 21.8735 4.08997e+12 3.15208e+12 -9.57075e+12 -7.06517e+12 
12283 1 -15.5987 -48.0079 21.8735 4.31503e+12 5.06324e+12 -1.08357e+13 -5.77567e+12 
283 1 -15.0781 -46.4055 21.8735 4.08987e+12 4.48212e+12 -1.08997e+13 -5.58779e+12 
284 1 -10.1448 -47.7274 21.8735 4.08987e+12 5.47583e+12 -1.18935e+13 -3.86662e+12 
288 1 10.1448 -47.7274 21.8735 4.08987e+12 5.47583e+12 -1.18935e+13 3.86662e+12 
289 1 15.0781 -46.4055 21.8735 4.08987e+12 4.48212e+12 -1.08997e+13 5.58779e+12 
290 1 19.8461 -44.5752 21.8735 4.08997e+12 3.15208e+12 -9.57075e+12 7.06517e+12 
12289 1 15.5987 -48.0079 21.8735 4.31503e+12 5.06324e+12 -1.08357e+13 5.77567e+12 
12290 1 20.5315 -46.1144 21.8735 4.31512e+12 3.68847e+12 -9.46207e+12 7.30269e+12 
12291 1 25.2392 -43.7157 21.8735 4.31513e+12 2.02648e+12 -7.8002e+12 8.51021e+12 
12279 1 -33.7767 -37.5128 21.8735 4.31513e+12 -1.85981e+12 -3.91411e+12 -9.77297e+12 
12280 1 -29.6705 -40.838 21.8735 4.31502e+12 1.50196e+11 -5.92259e+12 -9.34516e+12 
280 1 -28.6802 -39.4749 21.8735 4.08987e+12 -2.71101e+11 -6.14636e+12 -9.0412e+12 
281 1 -24.3968 -42.2565 21.8735 4.08998e+12 1.54414e+12 -7.96292e+12 -8.23343e+12 
291 1 24.3968 -42.2565 21.8735 4.08998e+12 1.54414e+12 -7.96292e+12 8.23343e+12 
12292 1 29.6705 -40.838 21.8735 4.31502e+12 1.50196e+11 -5.92259e+12 9.34516e+12 
292 1 28.6802 -39.4749 21.8735 4.08987e+12 -2.71101e+11 -6.14636e+12 9.0412e+12 
12293 1 33.7767 -37.5128 21.8735 4.31513e+12 -1.85981e+12 -3.91411e+12 9.77297e+12 
278 1 -36.2607 -32.6493 21.8735 4.08999e+12 -4.20324e+12 -2.21573e+12 -9.45512e+12 
12278 1 -37.5128 -33.7767 21.8735 4.31513e+12 -3.91411e+12 -1.85981e+12 -9.77297e+12 
279 1 -32.6493 -36.2607 21.8735 4.08999e+12 -2.21573e+12 -4.20324e+12 -9.45512e+12 
293 1 32.6493 -36.2607 21.8735 4.08999e+12 -2.21573e+12 -4.20324e+12 9.45512e+12 
294 1 36.2607 -32.6493 21.8735 4.08999e+12 -4.20324e+12 -2.21573e+12 9.45512e+12 
12294 1 37.5128 -33.7767 21.8735 4.31513e+12 -3.91411e+12 -1.85981e+12 9.77297e+12 
276 1 -42.2565 -24.3968 21.8735 4.08998e+12 -7.96292e+12 1.54414e+12 -8.23343e+12 
12276 1 -43.7157 -25.2392 21.8735 4.31513e+12 -7.8002e+12 2.02648e+12 -8.51021e+12 
12277 1 -40.838 -29.6705 21.8735 4.31502e+12 -5.92259e+12 1.50196e+11 -9.34516e+12 
277 1 -39.4749 -28.6802 21.8735 4.08987e+12 -6.14636e+12 -2.71101e+11 -9.0412e+12 
295 1 39.4749 -28.6802 21.8735 4.08987e+12 -6.14636e+12 -2.71101e+11 9.0412e+12 
296 1 42.2565 -24.3968 21.8735 4.08998e+12 -7.96292e+12 1.54414e+12 8.23343e+12 
12295 1 40.838 -29.6705 21.8735 4.31502e+12 -5.92259e+12 1.50196e+11 9.34516e+12 
12296 1 43.7157 -25.2392 21.8735 4.31513e+12 -7.8002e+12 2.02648e+12 8.51021e+12 
12275 1 -46.1144 -20.5315 21.8735 4.31512e+12 -9.46207e+12 3.68847e+12 -7.30269e+12 
275 1 -44.5752 -19.8461 21.8735 4.08997e+12 -9.57075e+12 3.15208e+12 -7.06517e+12 
297 1 44.5752 -19.8461 21.8735 4.08997e+12 -9.57075e+12 3.15208e+12 7.06517e+12 
12297 1 46.1144 -20.5315 21.8735 4.31512e+12 -9.46207e+12 3.68847e+12 7.30269e+12 
274 1 -46.4055 -15.0781 21.8735 4.08987e+12 -1.08997e+13 4.48212e+12 -5.58779e+12 
12274 1 -48.0079 -15.5987 21.8735 4.31503e+12 -1.08357e+13 5.06324e+12 -5.77567e+12 
298 1 46.4055 -15.0781 21.8735 4.08987e+12 -1.08997e+13 4.48212e+12 5.58779e+12 
12298 1 48.0079 -15.5987 21.8735 4.31503e+12 -1.08357e+13 5.06324e+12 5.77567e+12 
12273 1 -49.3754 -10.4951 21.8735 4.31503e+12 -1.18629e+13 6.09038e+12 -3.99662e+12 
273 1 -47.7274 -10.1448 21.8735 4.08987e+12 -1.18935e+13 5.47583e+12 -3.86662e+12 
12299 1 49.3754 -10.4951 21.8735 4.31503e+12 -1.18629e+13 6.09038e+12 3.99662e+12 
299 1 47.7274 -10.1448 21.8735 4.08987e+12 -1.18935e+13 5.47583e+12 3.86662e+12 
272 1 -48.5263 -5.10033 21.8735 4.08981e+12 -1.25068e+13 6.09002e+12 -1.97631e+12 
12272 1 -50.202 -5.27643 21.8735 4.31496e+12 -1.24969e+13 6.72517e+12 -2.04276e+12 
271 1 -48.7936 -2.27374e-13 21.8735 4.08993e+12 -1.27158e+13 6.29775e+12 -66.3897 
12271 1 -50.4785 -2.27374e-13 21.8735 4.31506e+12 -1.27129e+13 6.93984e+12 -258.022 
300 1 48.5263 -5.10033 21.8735 4.08981e+12 -1.25068e+13 6.09002e+12 1.97631e+12 
12300 1 50.202 -5.27643 21.8735 4.31496e+12 -1.24969e+13 6.72517e+12 2.04276e+12 
241 1 48.7936 -2.27374e-13 21.8735 4.08993e+12 -1.27158e+13 6.29775e+12 194.069 
12241 1 50.4785 -2.27374e-13 21.8735 4.31506e+12 -1.27129e+13 6.93984e+12 341.283 
12344 1 -10.4951 -49.3754 26.9213 4.31503e+12 6.09038e+12 -1.18629e+13 -3.99662e+12 
345 1 -5.10033 -48.5263 26.9213 4.08981e+12 6.09002e+12 -1.25068e+13 -1.97631e+12 
12345 1 -5.27643 -50.202 26.9213 4.31496e+12 6.72517e+12 -1.24969e+13 -2.04276e+12 
346 1 -2.27374e-13 -48.7936 26.9213 4.08993e+12 6.29775e+12 -1.27158e+13 -78.0053 
12346 1 -2.27374e-13 -50.4785 26.9213 4.31506e+12 6.93984e+12 -1.27129e+13 194.803 
347 1 5.10033 -48.5263 26.9213 4.08981e+12 6.09002e+12 -1.25068e+13 1.97631e+12 
12347 1 5.27643 -50.202 26.9213 4.31496e+12 6.72517e+12 -1.24969e+13 2.04276e+12 
12348 1 10.4951 -49.3754 26.9213 4.31503e+12 6.09038e+12 -1.18629e+13 3.99662e+12 
12341 1 -25.2392 -43.7157 26.9213 4.31513e+12 2.02648e+12 -7.8002e+12 -8.51021e+12 
12342 1 -20.5315 -46.1144 26.9213 4.31512e+12 3.68847e+12 -9.46207e+12 -7.30269e+12 
342 1 -19.8461 -44.5752 26.9213 4.08997e+12 3.15208e+12 -9.57075e+12 -7.06517e+12 
12343 1 -15.5987 -48.0079 26.9213 4.31503e+12 5.06324e+12 -1.08357e+13 -5.77567e+12 
343 1 -15.0781 -46.4055 26.9213 4.08987e+12 4.48212e+12 -1.08997e+13 -5.58779e+12 
344 1 -10.1448 -47.7274 26.9213 4.08987e+12 5.47583e+12 -1.18935e+13 -3.86662e+12 
348 1 10.1448 -47.7274 26.9213 4.08987e+12 5.47583e+12 -1.18935e+13 3.86662e+12 
349 1 15.0781 -46.4055 26.9213 4.08987e+12 4.48212e+12 -1.08997e+13 5.58779e+12 
350 1 19.8461 -44.5752 26.9213 4.08997e+12 3.15208e+12 -9.57075e+12 7.06517e+12 
12349 1 15.5987 -48.0079 26.9213 4.31503e+12 5.06324e+12 -1.08357e+13 5.77567e+12 
12350 1 20.5315 -46.1144 26.9213 4.31512e+12 3.68847e+12 -9.46207e+12 7.30269e+12 
12351 1 25.2392 -43.7157 26.9213 4.31513e+12 2.02648e+12 -7.8002e+12 8.51021e+12 
12339 1 -33.7767 -37.5128 26.9213 4.31513e+12 -1.85981e+12 -3.91411e+12 -9.77297e+12 
12340 1 -29.6705 -40.838 26.9213 4.31502e+12 1.50196e+11 -5.92259e+12 -9.34516e+12 
340 1 -28.6802 -39.4749 26.9213 4.08987e+12 -2.71101e+11 -6.14636e+12 -9.0412e+12 
341 1 -24.3968 -42.2565 26.9213 4.08998e+12 1.54414e+12 -7.96292e+12 -8.23343e+12 
351 1 24.3968 -42.2565 26.9213 4.08998e+12 1.54414e+12 -7.96292e+12 8.23343e+12 
12352 1 29.6705 -40.838 26.9213 4.31502e+12 1.50196e+11 -5.92259e+12 9.34516e+12 
352 1 28.6802 -39.4749 26.9213 4.08987e+12 -2.71101e+11 -6.14636e+12 9.0412e+12 
12353 1 33.7767 -37.5128 26.9213 4.31513e+12 -1.85981e+12 -3.91411e+12 9.77297e+12 
338 1 -36.2607 -32.6493 26.9213 4.08999e+12 -4.20324e+12 -2.21573e+12 -9.45512e+12 
12338 1 -37.5128 -33.7767 26.9213 4.31513e+12 -3.91411e+12 -1.85981e+12 -9.77297e+12 
339 1 -32.6493 -36.2607 26.9213 4.08999e+12 -2.21573e+12 -4.20324e+12 -9.45512e+12 
353 1 32.6493 -36.2607 26.9213 4.08999e+12 -2.21573e+12 -4.20324e+12 9.45512e+12 
354 1 36.2607 -32.6493 26.9213 4.08999e+12 -4.20324e+12 -2.21573e+12 9.45512e+12 
12354 1 37.5128 -33.7767 26.9213 4.31513e+12 -3.91411e+12 -1.85981e+12 9.77297e+12 
336 1 -42.2565 -24.3968 26.9213 4.08998e+12 -7.96292e+12 1.54414e+12 -8.23343e+12 
12336 1 -43.7157 -25.2392 26.9213 4.31513e+12 -7.8002e+12 2.02648e+12 -8.51021e+12 
12337 1 -40.838 -29.6705 26.9213 4.31502e+12 -5.92259e+12 1.50196e+11 -9.34516e+12 
337 1 -39.4749 -28.6802 26.9213 4.08987e+12 -6.14636e+12 -2.71101e+11 -9.0412e+12 
355 1 39.4749 -28.6802 26.9213 4.08987e+12 -6.14636e+12 -2.71101e+11 9.0412e+12 
356 1 42.2565 -24.3968 26.9213 4.08998e+12 -7.96292e+12 1.54414e+12 8.23343e+12 
12355 1 40.838 -29.6705 26.9213 4.31502e+12 -5.92259e+12 1.50196e+11 9.34516e+12 
12356 1 43.7157 -25.2392 26.9213 4.31513e+12 -7.8002e+12 2.02648e+12 8.51021e+12 
12335 1 -46.1144 -20.5315 26.9213 4.31512e+12 -9.46207e+12 3.68847e+12 -7.30269e+12 
335 1 -44.5752 -19.8461 26.9213 4.08997e+12 -9.57075e+12 3.15208e+12 -7.06517e+12 
357 1 44.5752 -19.8461 26.9213 4.08997e+12 -9.57075e+12 3.15208e+12 7.06517e+12 
12357 1 46.1144 -20.5315 26.9213 4.31512e+12 -9.46207e+12 3.68847e+12 7.30269e+12 
334 1 -46.4055 -15.0781 26.9213 4.08987e+12 -1.08997e+13 4.48212e+12 -5.58779e+12 
12334 1 -48.0079 -15.5987 26.9213 4.31503e+12 -1.08357e+13 5.06324e+12 -5.77567e+12 
358 1 46.4055 -15.0781 26.9213 4.08987e+12 -1.08997e+13 4.48212e+12 5.58779e+12 
12358 1 48.0079 -15.5987 26.9213 4.31503e+12 -1.08357e+13 5.06324e+12 5.77567e+12 
12333 1 -49.3754 -10.4951 26.9213 4.31503e+12 -1.18629e+13 6.09038e+12 -3.99662e+12 