ITEM: TIMESTEP
11000
ITEM: NUMBER OF ATOMS
24000
ITEM: BOX BOUNDS pp pp pp
-1.3468478613764680e+03 1.3468478613764680e+03
-1.3468478613764680e+03 1.3468478613764680e+03
-1.3468478613764680e+03 1.3468478613764680e+03
ITEM: ATOMS id type x y z c_pte c_csym[1] c_csym[2] c_csym[4] 
12044 1 -10.501 -49.4035 1.68359 2.98218e+12 4.20124e+12 -1.20215e+13 -3.49424e+12 
45 1 -5.10336 -48.5554 1.68359 2.82309e+12 4.26963e+12 -1.25749e+13 -1.69035e+12 
12045 1 -5.27942 -50.2305 1.68359 2.98211e+12 4.75049e+12 -1.25699e+13 -1.73125e+12 
46 1 1.78102e-05 -48.8228 1.68359 2.8232e+12 4.43704e+12 -1.27436e+13 9.75642e+10 
12046 1 1.86627e-05 -50.5072 1.68359 2.98221e+12 4.92118e+12 -1.2742e+13 1.07019e+11 
47 1 5.1034 -48.5554 1.68359 2.82308e+12 4.22905e+12 -1.25343e+13 1.8812e+12 
12047 1 5.27945 -50.2305 1.68359 2.98211e+12 4.706e+12 -1.25254e+13 1.94062e+12 
12048 1 10.5011 -49.4035 1.68359 2.98218e+12 4.11417e+12 -1.19345e+13 3.68977e+12 
12041 1 -25.2536 -43.7405 1.68359 2.98228e+12 5.97882e+11 -8.41937e+12 -7.59519e+12 
12042 1 -20.5431 -46.1406 1.68359 2.98227e+12 2.07848e+12 -9.89984e+12 -6.49181e+12 
42 1 -19.858 -44.6019 1.68359 2.82325e+12 1.6671e+12 -9.97428e+12 -6.31883e+12 
12043 1 -15.6076 -48.0352 1.68359 2.98218e+12 3.29746e+12 -1.11177e+13 -5.10436e+12 
43 1 -15.0871 -46.4333 1.68359 2.82315e+12 2.85378e+12 -1.11599e+13 -4.97019e+12 
44 1 -10.1508 -47.7559 1.68359 2.82315e+12 3.73404e+12 -1.20402e+13 -3.40474e+12 
48 1 10.1509 -47.7559 1.68359 2.82315e+12 3.65468e+12 -1.19608e+13 3.58299e+12 
49 1 15.0871 -46.4333 1.68359 2.82315e+12 2.7391e+12 -1.10452e+13 5.12805e+12 
50 1 19.858 -44.6019 1.68359 2.82325e+12 1.5221e+12 -9.82928e+12 6.44939e+12 
12049 1 15.6076 -48.0352 1.68359 2.98218e+12 3.17165e+12 -1.09919e+13 5.27753e+12 
12050 1 20.5431 -46.1406 1.68359 2.98227e+12 1.91941e+12 -9.74078e+12 6.63503e+12 
12051 1 25.2536 -43.7405 1.68359 2.98228e+12 4.12519e+11 -8.234e+12 7.70221e+12 
12039 1 -33.7959 -37.5342 1.68359 2.98229e+12 -2.88123e+12 -4.94044e+12 -8.77246e+12 
12040 1 -29.6874 -40.8612 1.68359 2.98217e+12 -1.0793e+12 -6.74084e+12 -8.36598e+12 
40 1 -28.6973 -39.4985 1.68359 2.82315e+12 -1.40577e+12 -6.9002e+12 -8.13945e+12 
41 1 -24.4114 -42.2818 1.68359 2.82326e+12 2.2615e+11 -8.53344e+12 -7.39098e+12 
51 1 24.4114 -42.2818 1.68359 2.82326e+12 5.71653e+10 -8.36446e+12 7.48854e+12 
12052 1 29.6874 -40.8612 1.68359 2.98217e+12 -1.28288e+12 -6.53727e+12 8.43212e+12 
52 1 28.6973 -39.4985 1.68359 2.82315e+12 -1.59134e+12 -6.71463e+12 8.19974e+12 
12053 1 33.7959 -37.5341 1.68359 2.98228e+12 -3.09411e+12 -4.72758e+12 8.79482e+12 
38 1 -36.2824 -32.6689 1.68359 2.82327e+12 -4.95467e+12 -3.35282e+12 -8.55389e+12 
12038 1 -37.5341 -33.7959 1.68359 2.98228e+12 -4.72758e+12 -3.09411e+12 -8.79482e+12 
39 1 -32.6688 -36.2824 1.68359 2.82327e+12 -3.15876e+12 -5.14872e+12 -8.5335e+12 
53 1 32.6689 -36.2824 1.68359 2.82327e+12 -3.35282e+12 -4.95467e+12 8.55389e+12 
54 1 36.2824 -32.6688 1.68359 2.82327e+12 -5.14872e+12 -3.15876e+12 8.5335e+12 
12054 1 37.5342 -33.7959 1.68359 2.98229e+12 -4.94044e+12 -2.88123e+12 8.77246e+12 
36 1 -42.2818 -24.4114 1.68359 2.82326e+12 -8.36446e+12 5.71653e+10 -7.48854e+12 
12036 1 -43.7405 -25.2536 1.68359 2.98228e+12 -8.234e+12 4.12519e+11 -7.70221e+12 
12037 1 -40.8612 -29.6874 1.68359 2.98217e+12 -6.53727e+12 -1.28288e+12 -8.43212e+12 
37 1 -39.4985 -28.6973 1.68359 2.82315e+12 -6.71463e+12 -1.59134e+12 -8.19974e+12 
55 1 39.4985 -28.6973 1.68359 2.82315e+12 -6.9002e+12 -1.40577e+12 8.13945e+12 
56 1 42.2818 -24.4114 1.68359 2.82326e+12 -8.53344e+12 2.2615e+11 7.39098e+12 
12055 1 40.8612 -29.6874 1.68359 2.98217e+12 -6.74084e+12 -1.0793e+12 8.36598e+12 
12056 1 43.7405 -25.2536 1.68359 2.98228e+12 -8.41937e+12 5.97882e+11 7.59519e+12 
12035 1 -46.1406 -20.5431 1.68359 2.98227e+12 -9.74078e+12 1.91941e+12 -6.63503e+12 
35 1 -44.6019 -19.858 1.68359 2.82325e+12 -9.82928e+12 1.5221e+12 -6.44939e+12 
57 1 44.6019 -19.858 1.68359 2.82325e+12 -9.97428e+12 1.6671e+12 6.31883e+12 
12057 1 46.1406 -20.5431 1.68359 2.98227e+12 -9.89984e+12 2.07848e+12 6.49181e+12 
34 1 -46.4333 -15.0871 1.68359 2.82315e+12 -1.10452e+13 2.7391e+12 -5.12805e+12 
12034 1 -48.0352 -15.6076 1.68359 2.98218e+12 -1.09919e+13 3.17165e+12 -5.27753e+12 
58 1 46.4333 -15.0871 1.68359 2.82315e+12 -1.11599e+13 2.85378e+12 4.97019e+12 
12058 1 48.0352 -15.6076 1.68359 2.98218e+12 -1.11177e+13 3.29746e+12 5.10436e+12 
12033 1 -49.4035 -10.5011 1.68359 2.98218e+12 -1.19345e+13 4.11417e+12 -3.68977e+12 
33 1 -47.7559 -10.1509 1.68359 2.82315e+12 -1.19608e+13 3.65468e+12 -3.58299e+12 
12059 1 49.4035 -10.501 1.68359 2.98218e+12 -1.20215e+13 4.20124e+12 3.49424e+12 
59 1 47.7559 -10.1508 1.68359 2.82315e+12 -1.20402e+13 3.73404e+12 3.40474e+12 
32 1 -48.5554 -5.1034 1.68359 2.82308e+12 -1.25343e+13 4.22905e+12 -1.8812e+12 
12032 1 -50.2305 -5.27945 1.68359 2.98211e+12 -1.25254e+13 4.706e+12 -1.94062e+12 
31 1 -48.8228 -1.78102e-05 1.68359 2.8232e+12 -1.27436e+13 4.43704e+12 -9.75642e+10 
12031 1 -50.5072 -1.86627e-05 1.68359 2.98221e+12 -1.2742e+13 4.92118e+12 -1.07019e+11 
60 1 48.5554 -5.10336 1.68359 2.82309e+12 -1.25749e+13 4.26963e+12 1.69035e+12 
12060 1 50.2305 -5.27942 1.68359 2.98211e+12 -1.25699e+13 4.75049e+12 1.73125e+12 
12104 1 -10.501 -49.4035 6.73424 4.32623e+12 6.10088e+12 -1.18848e+13 -4.00384e+12 
12164 1 -10.501 -49.4035 11.7849 4.32625e+12 6.1009e+12 -1.18848e+13 -4.00384e+12 
105 1 -5.10338 -48.5554 6.73424 4.1008e+12 6.10133e+12 -1.25291e+13 -1.97989e+12 
12105 1 -5.27943 -50.2305 6.73424 4.32615e+12 6.73683e+12 -1.25199e+13 -2.04645e+12 
165 1 -5.10338 -48.5554 11.7849 4.10082e+12 6.10135e+12 -1.25291e+13 -1.97989e+12 
12165 1 -5.27943 -50.2305 11.7849 4.32618e+12 6.73685e+12 -1.25199e+13 -2.04645e+12 
106 1 -2.27374e-13 -48.8228 6.73424 4.10092e+12 6.30943e+12 -1.27385e+13 1.71508e+06 
12106 1 -2.27374e-13 -50.5072 6.73424 4.32626e+12 6.95188e+12 -1.27363e+13 1.87215e+06 
166 1 -2.27374e-13 -48.8228 11.7849 4.10094e+12 6.30945e+12 -1.27385e+13 213.431 
12166 1 -2.27374e-13 -50.5072 11.7849 4.32628e+12 6.9519e+12 -1.27363e+13 -161.497 
107 1 5.10338 -48.5554 6.73424 4.1008e+12 6.10133e+12 -1.25291e+13 1.97989e+12 
12107 1 5.27943 -50.2305 6.73424 4.32615e+12 6.73683e+12 -1.25199e+13 2.04645e+12 
167 1 5.10338 -48.5554 11.7849 4.10082e+12 6.10135e+12 -1.25291e+13 1.97989e+12 
12167 1 5.27943 -50.2305 11.7849 4.32618e+12 6.73685e+12 -1.25199e+13 2.04645e+12 
12108 1 10.501 -49.4035 6.73424 4.32623e+12 6.10088e+12 -1.18848e+13 4.00384e+12 
12168 1 10.501 -49.4035 11.7849 4.32625e+12 6.1009e+12 -1.18848e+13 4.00384e+12 
12101 1 -25.2536 -43.7405 6.73424 4.32632e+12 2.02965e+12 -7.81477e+12 -8.52557e+12 
12161 1 -25.2536 -43.7405 11.7849 4.32635e+12 2.02967e+12 -7.81476e+12 -8.52558e+12 
12102 1 -20.5431 -46.1406 6.73424 4.32631e+12 3.69465e+12 -9.47964e+12 -7.31587e+12 
102 1 -19.858 -44.6019 6.73424 4.10095e+12 3.15808e+12 -9.58777e+12 -7.07795e+12 
12103 1 -15.6076 -48.0352 6.73424 4.32622e+12 5.07189e+12 -1.08558e+13 -5.78609e+12 
12162 1 -20.5431 -46.1406 11.7849 4.32634e+12 3.69466e+12 -9.47963e+12 -7.31588e+12 
162 1 -19.858 -44.6019 11.7849 4.10098e+12 3.15809e+12 -9.58777e+12 -7.07796e+12 
12163 1 -15.6076 -48.0352 11.7849 4.32625e+12 5.07191e+12 -1.08558e+13 -5.7861e+12 
103 1 -15.0871 -46.4333 6.73424 4.10085e+12 4.49052e+12 -1.09191e+13 -5.5979e+12 
104 1 -10.1508 -47.7559 6.73424 4.10085e+12 5.48603e+12 -1.19147e+13 -3.87361e+12 
163 1 -15.0871 -46.4333 11.7849 4.10088e+12 4.49053e+12 -1.09191e+13 -5.59791e+12 
164 1 -10.1508 -47.7559 11.7849 4.10088e+12 5.48604e+12 -1.19147e+13 -3.87361e+12 
108 1 10.1508 -47.7559 6.73424 4.10085e+12 5.48602e+12 -1.19147e+13 3.87361e+12 
109 1 15.0871 -46.4333 6.73424 4.10085e+12 4.49051e+12 -1.09191e+13 5.5979e+12 
168 1 10.1508 -47.7559 11.7849 4.10088e+12 5.48604e+12 -1.19147e+13 3.87361e+12 
169 1 15.0871 -46.4333 11.7849 4.10088e+12 4.49053e+12 -1.09191e+13 5.59791e+12 
110 1 19.858 -44.6019 6.73424 4.10095e+12 3.15807e+12 -9.58777e+12 7.07795e+12 
12109 1 15.6076 -48.0352 6.73424 4.32622e+12 5.07189e+12 -1.08558e+13 5.7861e+12 
12110 1 20.5431 -46.1406 6.73424 4.32631e+12 3.69464e+12 -9.47964e+12 7.31588e+12 
170 1 19.858 -44.6019 11.7849 4.10098e+12 3.15809e+12 -9.58777e+12 7.07796e+12 
12169 1 15.6076 -48.0352 11.7849 4.32625e+12 5.07191e+12 -1.08558e+13 5.7861e+12 
12170 1 20.5431 -46.1406 11.7849 4.32634e+12 3.69466e+12 -9.47963e+12 7.31588e+12 
12111 1 25.2536 -43.7405 6.73424 4.32632e+12 2.02965e+12 -7.81477e+12 8.52558e+12 
12171 1 25.2536 -43.7405 11.7849 4.32635e+12 2.02967e+12 -7.81476e+12 8.52558e+12 
12099 1 -33.7959 -37.5342 6.73424 4.32633e+12 -1.86365e+12 -3.92167e+12 -9.79062e+12 
12159 1 -33.7959 -37.5342 11.7849 4.32635e+12 -1.86364e+12 -3.92165e+12 -9.79063e+12 
12100 1 -29.6874 -40.8612 6.73424 4.32622e+12 1.49984e+11 -5.93377e+12 -9.36203e+12 
100 1 -28.6973 -39.4985 6.73424 4.10086e+12 -2.71296e+11 -6.15719e+12 -9.05755e+12 
12160 1 -29.6874 -40.8612 11.7849 4.32624e+12 1.49997e+11 -5.93376e+12 -9.36204e+12 
160 1 -28.6973 -39.4985 11.7849 4.10088e+12 -2.71284e+11 -6.15718e+12 -9.05756e+12 
101 1 -24.4114 -42.2818 6.73424 4.10097e+12 1.54723e+12 -7.97704e+12 -8.24832e+12 
161 1 -24.4114 -42.2818 11.7849 4.10099e+12 1.54724e+12 -7.97703e+12 -8.24833e+12 
111 1 24.4114 -42.2818 6.73424 4.10097e+12 1.54722e+12 -7.97703e+12 8.24832e+12 
171 1 24.4114 -42.2818 11.7849 4.10099e+12 1.54724e+12 -7.97703e+12 8.24833e+12 
12112 1 29.6874 -40.8612 6.73424 4.32622e+12 1.49981e+11 -5.93376e+12 9.36203e+12 
112 1 28.6973 -39.4985 6.73424 4.10086e+12 -2.71299e+11 -6.15718e+12 9.05755e+12 
12172 1 29.6874 -40.8612 11.7849 4.32624e+12 1.49997e+11 -5.93376e+12 9.36204e+12 
172 1 28.6973 -39.4985 11.7849 4.10088e+12 -2.71284e+11 -6.15718e+12 9.05756e+12 
12113 1 33.7959 -37.5342 6.73424 4.32633e+12 -1.86366e+12 -3.92166e+12 9.79062e+12 
12173 1 33.7959 -37.5342 11.7849 4.32635e+12 -1.86364e+12 -3.92165e+12 9.79063e+12 
98 1 -36.2824 -32.6688 6.73424 4.10098e+12 -4.21055e+12 -2.21945e+12 -9.47223e+12 
12098 1 -37.5342 -33.7959 6.73424 4.32633e+12 -3.92166e+12 -1.86366e+12 -9.79062e+12 
158 1 -36.2824 -32.6688 11.7849 4.101e+12 -4.21054e+12 -2.21944e+12 -9.47224e+12 
12158 1 -37.5342 -33.7959 11.7849 4.32635e+12 -3.92165e+12 -1.86364e+12 -9.79063e+12 
99 1 -32.6688 -36.2824 6.73424 4.10098e+12 -2.21945e+12 -4.21055e+12 -9.47223e+12 
159 1 -32.6688 -36.2824 11.7849 4.101e+12 -2.21944e+12 -4.21054e+12 -9.47224e+12 
113 1 32.6688 -36.2824 6.73424 4.10098e+12 -2.21945e+12 -4.21055e+12 9.47223e+12 
173 1 32.6688 -36.2824 11.7849 4.101e+12 -2.21944e+12 -4.21054e+12 9.47224e+12 
114 1 36.2824 -32.6688 6.73424 4.10098e+12 -4.21055e+12 -2.21945e+12 9.47223e+12 
12114 1 37.5342 -33.7959 6.73424 4.32633e+12 -3.92167e+12 -1.86365e+12 9.79062e+12 
174 1 36.2824 -32.6688 11.7849 4.101e+12 -4.21054e+12 -2.21944e+12 9.47224e+12 
12174 1 37.5342 -33.7959 11.7849 4.32635e+12 -3.92165e+12 -1.86364e+12 9.79063e+12 
96 1 -42.2818 -24.4114 6.73424 4.10097e+12 -7.97703e+12 1.54722e+12 -8.24832e+12 
12096 1 -43.7405 -25.2536 6.73424 4.32632e+12 -7.81477e+12 2.02965e+12 -8.52558e+12 
12097 1 -40.8612 -29.6874 6.73424 4.32622e+12 -5.93376e+12 1.49981e+11 -9.36203e+12 
97 1 -39.4985 -28.6973 6.73424 4.10086e+12 -6.15718e+12 -2.71299e+11 -9.05755e+12 
156 1 -42.2818 -24.4114 11.7849 4.10099e+12 -7.97703e+12 1.54724e+12 -8.24833e+12 
12156 1 -43.7405 -25.2536 11.7849 4.32635e+12 -7.81476e+12 2.02967e+12 -8.52558e+12 
12157 1 -40.8612 -29.6874 11.7849 4.32624e+12 -5.93376e+12 1.49997e+11 -9.36204e+12 
157 1 -39.4985 -28.6973 11.7849 4.10088e+12 -6.15718e+12 -2.71284e+11 -9.05756e+12 
115 1 39.4985 -28.6973 6.73424 4.10086e+12 -6.15719e+12 -2.71296e+11 9.05755e+12 
116 1 42.2818 -24.4114 6.73424 4.10097e+12 -7.97704e+12 1.54723e+12 8.24832e+12 
12115 1 40.8612 -29.6874 6.73424 4.32622e+12 -5.93377e+12 1.49984e+11 9.36203e+12 
12116 1 43.7405 -25.2536 6.73424 4.32632e+12 -7.81477e+12 2.02965e+12 8.52557e+12 
175 1 39.4985 -28.6973 11.7849 4.10088e+12 -6.15718e+12 -2.71284e+11 9.05756e+12 
176 1 42.2818 -24.4114 11.7849 4.10099e+12 -7.97703e+12 1.54724e+12 8.24833e+12 
12175 1 40.8612 -29.6874 11.7849 4.32624e+12 -5.93376e+12 1.49997e+11 9.36204e+12 
12176 1 43.7405 -25.2536 11.7849 4.32635e+12 -7.81476e+12 2.02967e+12 8.52558e+12 
12095 1 -46.1406 -20.5431 6.73424 4.32631e+12 -9.47964e+12 3.69464e+12 -7.31588e+12 
12155 1 -46.1406 -20.5431 11.7849 4.32634e+12 -9.47963e+12 3.69466e+12 -7.31588e+12 
95 1 -44.6019 -19.858 6.73424 4.10095e+12 -9.58777e+12 3.15807e+12 -7.07795e+12 
155 1 -44.6019 -19.858 11.7849 4.10098e+12 -9.58777e+12 3.15809e+12 -7.07796e+12 
117 1 44.6019 -19.858 6.73424 4.10095e+12 -9.58777e+12 3.15808e+12 7.07795e+12 
177 1 44.6019 -19.858 11.7849 4.10098e+12 -9.58777e+12 3.15809e+12 7.07796e+12 
12117 1 46.1406 -20.5431 6.73424 4.32631e+12 -9.47964e+12 3.69465e+12 7.31587e+12 
12177 1 46.1406 -20.5431 11.7849 4.32634e+12 -9.47963e+12 3.69466e+12 7.31588e+12 
94 1 -46.4333 -15.0871 6.73424 4.10085e+12 -1.09191e+13 4.49051e+12 -5.5979e+12 
12094 1 -48.0352 -15.6076 6.73424 4.32622e+12 -1.08558e+13 5.07189e+12 -5.7861e+12 
154 1 -46.4333 -15.0871 11.7849 4.10088e+12 -1.09191e+13 4.49053e+12 -5.59791e+12 
12154 1 -48.0352 -15.6076 11.7849 4.32625e+12 -1.08558e+13 5.07191e+12 -5.7861e+12 
118 1 46.4333 -15.0871 6.73424 4.10085e+12 -1.09191e+13 4.49052e+12 5.5979e+12 
12118 1 48.0352 -15.6076 6.73424 4.32622e+12 -1.08558e+13 5.07189e+12 5.78609e+12 
178 1 46.4333 -15.0871 11.7849 4.10088e+12 -1.09191e+13 4.49053e+12 5.59791e+12 
12178 1 48.0352 -15.6076 11.7849 4.32625e+12 -1.08558e+13 5.07191e+12 5.7861e+12 
12093 1 -49.4035 -10.501 6.73424 4.32623e+12 -1.18848e+13 6.10088e+12 -4.00384e+12 
93 1 -47.7559 -10.1508 6.73424 4.10085e+12 -1.19147e+13 5.48602e+12 -3.87361e+12 
12153 1 -49.4035 -10.501 11.7849 4.32625e+12 -1.18848e+13 6.1009e+12 -4.00384e+12 
153 1 -47.7559 -10.1508 11.7849 4.10088e+12 -1.19147e+13 5.48604e+12 -3.87361e+12 
12119 1 49.4035 -10.501 6.73424 4.32623e+12 -1.18848e+13 6.10088e+12 4.00384e+12 
119 1 47.7559 -10.1508 6.73424 4.10085e+12 -1.19147e+13 5.48603e+12 3.87361e+12 
12179 1 49.4035 -10.501 11.7849 4.32625e+12 -1.18848e+13 6.1009e+12 4.00384e+12 
179 1 47.7559 -10.1508 11.7849 4.10088e+12 -1.19147e+13 5.48604e+12 3.87361e+12 
92 1 -48.5554 -5.10338 6.73424 4.1008e+12 -1.25291e+13 6.10133e+12 -1.97989e+12 
12092 1 -50.2305 -5.27943 6.73424 4.32615e+12 -1.25199e+13 6.73683e+12 -2.04645e+12 
152 1 -48.5554 -5.10338 11.7849 4.10082e+12 -1.25291e+13 6.10135e+12 -1.97989e+12 
12152 1 -50.2305 -5.27943 11.7849 4.32618e+12 -1.25199e+13 6.73685e+12 -2.04645e+12 
91 1 -48.8228 -2.27374e-13 6.73424 4.10092e+12 -1.27385e+13 6.30943e+12 -1.71539e+06 
151 1 -48.8228 -2.27374e-13 11.7849 4.10094e+12 -1.27385e+13 6.30945e+12 165.563 
12151 1 -50.5072 -2.27374e-13 11.7849 4.32628e+12 -1.27363e+13 6.9519e+12 -12.4436 
12091 1 -50.5072 -2.27374e-13 6.73424 4.32626e+12 -1.27363e+13 6.95188e+12 -1.87243e+06 
120 1 48.5554 -5.10338 6.73424 4.1008e+12 -1.25291e+13 6.10133e+12 1.97989e+12 
12120 1 50.2305 -5.27943 6.73424 4.32615e+12 -1.25199e+13 6.73683e+12 2.04645e+12 
180 1 48.5554 -5.10338 11.7849 4.10082e+12 -1.25291e+13 6.10135e+12 1.97989e+12 
12180 1 50.2305 -5.27943 11.7849 4.32618e+12 -1.25199e+13 6.73685e+12 2.04645e+12 
12061 1 50.5072 -2.27374e-13 6.73424 4.32626e+12 -1.27363e+13 6.95188e+12 -1.87214e+06 
121 1 48.8228 -2.27374e-13 11.7849 4.10094e+12 -1.27385e+13 6.30945e+12 -223.283 
12121 1 50.5072 -2.27374e-13 11.7849 4.32628e+12 -1.27363e+13 6.9519e+12 159.188 
61 1 48.8228 -2.27374e-13 6.73424 4.10092e+12 -1.27385e+13 6.30943e+12 -1.7152e+06 
12224 1 -10.501 -49.4035 16.8356 4.32625e+12 6.1009e+12 -1.18848e+13 -4.00384e+12 
225 1 -5.10338 -48.5554 16.8356 4.10082e+12 6.10135e+12 -1.25291e+13 -1.97989e+12 
12225 1 -5.27943 -50.2305 16.8356 4.32618e+12 6.73685e+12 -1.25199e+13 -2.04645e+12 
226 1 -2.27374e-13 -48.8228 16.8356 4.10094e+12 6.30945e+12 -1.27385e+13 218.203 
12226 1 -2.27374e-13 -50.5072 16.8356 4.32628e+12 6.9519e+12 -1.27363e+13 69.9675 
227 1 5.10338 -48.5554 16.8356 4.10082e+12 6.10135e+12 -1.25291e+13 1.97989e+12 
12227 1 5.27943 -50.2305 16.8356 4.32618e+12 6.73685e+12 -1.25199e+13 2.04645e+12 
12228 1 10.501 -49.4035 16.8356 4.32625e+12 6.1009e+12 -1.18848e+13 4.00384e+12 
12221 1 -25.2536 -43.7405 16.8356 4.32635e+12 2.02967e+12 -7.81476e+12 -8.52558e+12 
12222 1 -20.5431 -46.1406 16.8356 4.32634e+12 3.69466e+12 -9.47963e+12 -7.31588e+12 
222 1 -19.858 -44.6019 16.8356 4.10098e+12 3.15809e+12 -9.58777e+12 -7.07796e+12 
12223 1 -15.6076 -48.0352 16.8356 4.32625e+12 5.07191e+12 -1.08558e+13 -5.7861e+12 
223 1 -15.0871 -46.4333 16.8356 4.10088e+12 4.49053e+12 -1.09191e+13 -5.59791e+12 
224 1 -10.1508 -47.7559 16.8356 4.10088e+12 5.48604e+12 -1.19147e+13 -3.87361e+12 
228 1 10.1508 -47.7559 16.8356 4.10088e+12 5.48604e+12 -1.19147e+13 3.87361e+12 
229 1 15.0871 -46.4333 16.8356 4.10088e+12 4.49053e+12 -1.09191e+13 5.59791e+12 
230 1 19.858 -44.6019 16.8356 4.10098e+12 3.15809e+12 -9.58777e+12 7.07796e+12 
12229 1 15.6076 -48.0352 16.8356 4.32625e+12 5.07191e+12 -1.08558e+13 5.7861e+12 
12230 1 20.5431 -46.1406 16.8356 4.32634e+12 3.69466e+12 -9.47963e+12 7.31588e+12 
12231 1 25.2536 -43.7405 16.8356 4.32635e+12 2.02967e+12 -7.81476e+12 8.52558e+12 
12219 1 -33.7959 -37.5342 16.8356 4.32635e+12 -1.86364e+12 -3.92165e+12 -9.79063e+12 
12220 1 -29.6874 -40.8612 16.8356 4.32624e+12 1.49997e+11 -5.93376e+12 -9.36204e+12 
220 1 -28.6973 -39.4985 16.8356 4.10088e+12 -2.71284e+11 -6.15718e+12 -9.05756e+12 
221 1 -24.4114 -42.2818 16.8356 4.10099e+12 1.54724e+12 -7.97703e+12 -8.24833e+12 
231 1 24.4114 -42.2818 16.8356 4.10099e+12 1.54724e+12 -7.97703e+12 8.24833e+12 
12232 1 29.6874 -40.8612 16.8356 4.32624e+12 1.49997e+11 -5.93376e+12 9.36204e+12 
232 1 28.6973 -39.4985 16.8356 4.10088e+12 -2.71284e+11 -6.15718e+12 9.05756e+12 
12233 1 33.7959 -37.5342 16.8356 4.32635e+12 -1.86364e+12 -3.92165e+12 9.79063e+12 
218 1 -36.2824 -32.6688 16.8356 4.101e+12 -4.21054e+12 -2.21944e+12 -9.47224e+12 
12218 1 -37.5342 -33.7959 16.8356 4.32635e+12 -3.92165e+12 -1.86364e+12 -9.79063e+12 
219 1 -32.6688 -36.2824 16.8356 4.101e+12 -2.21944e+12 -4.21054e+12 -9.47224e+12 
233 1 32.6688 -36.2824 16.8356 4.101e+12 -2.21944e+12 -4.21054e+12 9.47224e+12 
234 1 36.2824 -32.6688 16.8356 4.101e+12 -4.21054e+12 -2.21944e+12 9.47224e+12 
12234 1 37.5342 -33.7959 16.8356 4.32635e+12 -3.92165e+12 -1.86364e+12 9.79063e+12 
216 1 -42.2818 -24.4114 16.8356 4.10099e+12 -7.97703e+12 1.54724e+12 -8.24833e+12 
12216 1 -43.7405 -25.2536 16.8356 4.32635e+12 -7.81476e+12 2.02967e+12 -8.52558e+12 
12217 1 -40.8612 -29.6874 16.8356 4.32624e+12 -5.93376e+12 1.49997e+11 -9.36204e+12 
217 1 -39.4985 -28.6973 16.8356 4.10088e+12 -6.15718e+12 -2.71284e+11 -9.05756e+12 
235 1 39.4985 -28.6973 16.8356 4.10088e+12 -6.15718e+12 -2.71284e+11 9.05756e+12 
236 1 42.2818 -24.4114 16.8356 4.10099e+12 -7.97703e+12 1.54724e+12 8.24833e+12 
12235 1 40.8612 -29.6874 16.8356 4.32624e+12 -5.93376e+12 1.49997e+11 9.36204e+12 
12236 1 43.7405 -25.2536 16.8356 4.32635e+12 -7.81476e+12 2.02967e+12 8.52558e+12 
12215 1 -46.1406 -20.5431 16.8356 4.32634e+12 -9.47963e+12 3.69466e+12 -7.31588e+12 
215 1 -44.6019 -19.858 16.8356 4.10098e+12 -9.58777e+12 3.15809e+12 -7.07796e+12 
237 1 44.6019 -19.858 16.8356 4.10098e+12 -9.58777e+12 3.15809e+12 7.07796e+12 
12237 1 46.1406 -20.5431 16.8356 4.32634e+12 -9.47963e+12 3.69466e+12 7.31588e+12 
214 1 -46.4333 -15.0871 16.8356 4.10088e+12 -1.09191e+13 4.49053e+12 -5.59791e+12 
12214 1 -48.0352 -15.6076 16.8356 4.32625e+12 -1.08558e+13 5.07191e+12 -5.7861e+12 
238 1 46.4333 -15.0871 16.8356 4.10088e+12 -1.09191e+13 4.49053e+12 5.59791e+12 
12238 1 48.0352 -15.6076 16.8356 4.32625e+12 -1.08558e+13 5.07191e+12 5.7861e+12 
12213 1 -49.4035 -10.501 16.8356 4.32625e+12 -1.18848e+13 6.1009e+12 -4.00384e+12 
213 1 -47.7559 -10.1508 16.8356 4.10088e+12 -1.19147e+13 5.48604e+12 -3.87361e+12 
12239 1 49.4035 -10.501 16.8356 4.32625e+12 -1.18848e+13 6.1009e+12 4.00384e+12 
239 1 47.7559 -10.1508 16.8356 4.10088e+12 -1.19147e+13 5.48604e+12 3.87361e+12 
212 1 -48.5554 -5.10338 16.8356 4.10082e+12 -1.25291e+13 6.10135e+12 -1.97989e+12 
12212 1 -50.2305 -5.27943 16.8356 4.32618e+12 -1.25199e+13 6.73685e+12 -2.04645e+12 
211 1 -48.8228 -2.27374e-13 16.8356 4.10094e+12 -1.27385e+13 6.30945e+12 -25.9538 
12211 1 -50.5072 -2.27374e-13 16.8356 4.32628e+12 -1.27363e+13 6.9519e+12 -179.929 
240 1 48.5554 -5.10338 16.8356 4.10082e+12 -1.25291e+13 6.10135e+12 1.97989e+12 
12240 1 50.2305 -5.27943 16.8356 4.32618e+12 -1.25199e+13 6.73685e+12 2.04645e+12 
181 1 48.8228 -2.27374e-13 16.8356 4.10094e+12 -1.27385e+13 6.30945e+12 -181.229 
12181 1 50.5072 -2.27374e-13 16.8356 4.32628e+12 -1.27363e+13 6.9519e+12 -93.0019 
12284 1 -10.501 -49.4035 21.8863 4.32625e+12 6.1009e+12 -1.18848e+13 -4.00384e+12 
285 1 -5.10338 -48.5554 21.8863 4.10082e+12 6.10135e+12 -1.25291e+13 -1.97989e+12 
12285 1 -5.27943 -50.2305 21.8863 4.32618e+12 6.73685e+12 -1.25199e+13 -2.04645e+12 
286 1 -2.27374e-13 -48.8228 21.8863 4.10094e+12 6.30945e+12 -1.27385e+13 198.035 
12286 1 -2.27374e-13 -50.5072 21.8863 4.32628e+12 6.9519e+12 -1.27363e+13 -201.468 
287 1 5.10338 -48.5554 21.8863 4.10082e+12 6.10135e+12 -1.25291e+13 1.97989e+12 
12287 1 5.27943 -50.2305 21.8863 4.32618e+12 6.73685e+12 -1.25199e+13 2.04645e+12 
12288 1 10.501 -49.4035 21.8863 4.32625e+12 6.1009e+12 -1.18848e+13 4.00384e+12 
12281 1 -25.2536 -43.7405 21.8863 4.32635e+12 2.02967e+12 -7.81476e+12 -8.52558e+12 
12282 1 -20.5431 -46.1406 21.8863 4.32634e+12 3.69466e+12 -9.47963e+12 -7.31588e+12 
282 1 -19.858 -44.6019 21.8863 4.10098e+12 3.15809e+12 -9.58777e+12 -7.07796e+12 
12283 1 -15.6076 -48.0352 21.8863 4.32625e+12 5.07191e+12 -1.08558e+13 -5.7861e+12 
283 1 -15.0871 -46.4333 21.8863 4.10088e+12 4.49053e+12 -1.09191e+13 -5.59791e+12 
284 1 -10.1508 -47.7559 21.8863 4.10088e+12 5.48604e+12 -1.19147e+13 -3.87361e+12 
288 1 10.1508 -47.7559 21.8863 4.10088e+12 5.48604e+12 -1.19147e+13 3.87361e+12 
289 1 15.0871 -46.4333 21.8863 4.10088e+12 4.49053e+12 -1.09191e+13 5.59791e+12 
290 1 19.858 -44.6019 21.8863 4.10098e+12 3.15809e+12 -9.58777e+12 7.07796e+12 
12289 1 15.6076 -48.0352 21.8863 4.32625e+12 5.07191e+12 -1.08558e+13 5.7861e+12 
12290 1 20.5431 -46.1406 21.8863 4.32634e+12 3.69466e+12 -9.47963e+12 7.31588e+12 
12291 1 25.2536 -43.7405 21.8863 4.32635e+12 2.02967e+12 -7.81476e+12 8.52558e+12 
12279 1 -33.7959 -37.5342 21.8863 4.32635e+12 -1.86364e+12 -3.92165e+12 -9.79063e+12 
12280 1 -29.6874 -40.8612 21.8863 4.32624e+12 1.49997e+11 -5.93376e+12 -9.36204e+12 
280 1 -28.6973 -39.4985 21.8863 4.10088e+12 -2.71284e+11 -6.15718e+12 -9.05756e+12 
281 1 -24.4114 -42.2818 21.8863 4.10099e+12 1.54724e+12 -7.97703e+12 -8.24833e+12 
291 1 24.4114 -42.2818 21.8863 4.10099e+12 1.54724e+12 -7.97703e+12 8.24833e+12 
12292 1 29.6874 -40.8612 21.8863 4.32624e+12 1.49997e+11 -5.93376e+12 9.36204e+12 
292 1 28.6973 -39.4985 21.8863 4.10088e+12 -2.71284e+11 -6.15718e+12 9.05756e+12 
12293 1 33.7959 -37.5342 21.8863 4.32635e+12 -1.86364e+12 -3.92165e+12 9.79063e+12 
278 1 -36.2824 -32.6688 21.8863 4.101e+12 -4.21054e+12 -2.21944e+12 -9.47224e+12 
12278 1 -37.5342 -33.7959 21.8863 4.32635e+12 -3.92165e+12 -1.86364e+12 -9.79063e+12 
279 1 -32.6688 -36.2824 21.8863 4.101e+12 -2.21944e+12 -4.21054e+12 -9.47224e+12 
293 1 32.6688 -36.2824 21.8863 4.101e+12 -2.21944e+12 -4.21054e+12 9.47224e+12 
294 1 36.2824 -32.6688 21.8863 4.101e+12 -4.21054e+12 -2.21944e+12 9.47224e+12 
12294 1 37.5342 -33.7959 21.8863 4.32635e+12 -3.92165e+12 -1.86364e+12 9.79063e+12 
276 1 -42.2818 -24.4114 21.8863 4.10099e+12 -7.97703e+12 1.54724e+12 -8.24833e+12 
12276 1 -43.7405 -25.2536 21.8863 4.32635e+12 -7.81476e+12 2.02967e+12 -8.52558e+12 
12277 1 -40.8612 -29.6874 21.8863 4.32624e+12 -5.93376e+12 1.49997e+11 -9.36204e+12 
277 1 -39.4985 -28.6973 21.8863 4.10088e+12 -6.15718e+12 -2.71284e+11 -9.05756e+12 
295 1 39.4985 -28.6973 21.8863 4.10088e+12 -6.15718e+12 -2.71284e+11 9.05756e+12 
296 1 42.2818 -24.4114 21.8863 4.10099e+12 -7.97703e+12 1.54724e+12 8.24833e+12 
12295 1 40.8612 -29.6874 21.8863 4.32624e+12 -5.93376e+12 1.49997e+11 9.36204e+12 
12296 1 43.7405 -25.2536 21.8863 4.32635e+12 -7.81476e+12 2.02967e+12 8.52558e+12 
12275 1 -46.1406 -20.5431 21.8863 4.32634e+12 -9.47963e+12 3.69466e+12 -7.31588e+12 
275 1 -44.6019 -19.858 21.8863 4.10098e+12 -9.58777e+12 3.15809e+12 -7.07796e+12 
297 1 44.6019 -19.858 21.8863 4.10098e+12 -9.58777e+12 3.15809e+12 7.07796e+12 
12297 1 46.1406 -20.5431 21.8863 4.32634e+12 -9.47963e+12 3.69466e+12 7.31588e+12 
274 1 -46.4333 -15.0871 21.8863 4.10088e+12 -1.09191e+13 4.49053e+12 -5.59791e+12 
12274 1 -48.0352 -15.6076 21.8863 4.32625e+12 -1.08558e+13 5.07191e+12 -5.7861e+12 
298 1 46.4333 -15.0871 21.8863 4.10088e+12 -1.09191e+13 4.49053e+12 5.59791e+12 
12298 1 48.0352 -15.6076 21.8863 4.32625e+12 -1.08558e+13 5.07191e+12 5.7861e+12 
12273 1 -49.4035 -10.501 21.8863 4.32625e+12 -1.18848e+13 6.1009e+12 -4.00384e+12 
273 1 -47.7559 -10.1508 21.8863 4.10088e+12 -1.19147e+13 5.48604e+12 -3.87361e+12 
12299 1 49.4035 -10.501 21.8863 4.32625e+12 -1.18848e+13 6.1009e+12 4.00384e+12 
299 1 47.7559 -10.1508 21.8863 4.10088e+12 -1.19147e+13 5.48604e+12 3.87361e+12 
272 1 -48.5554 -5.10338 21.8863 4.10082e+12 -1.25291e+13 6.10135e+12 -1.97989e+12 
12272 1 -50.2305 -5.27943 21.8863 4.32618e+12 -1.25199e+13 6.73685e+12 -2.04645e+12 
271 1 -48.8228 -2.27374e-13 21.8863 4.10094e+12 -1.27385e+13 6.30945e+12 -42.3865 
12271 1 -50.5072 -2.27374e-13 21.8863 4.32628e+12 -1.27363e+13 6.9519e+12 -161.884 
300 1 48.5554 -5.10338 21.8863 4.10082e+12 -1.25291e+13 6.10135e+12 1.97989e+12 
12300 1 50.2305 -5.27943 21.8863 4.32618e+12 -1.25199e+13 6.73685e+12 2.04645e+12 
241 1 48.8228 -2.27374e-13 21.8863 4.10094e+12 -1.27385e+13 6.30945e+12 123.914 
12241 1 50.5072 -2.27374e-13 21.8863 4.32628e+12 -1.27363e+13 6.9519e+12 215.018 
12344 1 -10.501 -49.4035 26.937 4.32625e+12 6.1009e+12 -1.18848e+13 -4.00384e+12 
345 1 -5.10338 -48.5554 26.937 4.10082e+12 6.10135e+12 -1.25291e+13 -1.97989e+12 
12345 1 -5.27943 -50.2305 26.937 4.32618e+12 6.73685e+12 -1.25199e+13 -2.04645e+12 
346 1 -2.27374e-13 -48.8228 26.937 4.10094e+12 6.30945e+12 -1.27385e+13 -49.9657 
12346 1 -2.27374e-13 -50.5072 26.937 4.32628e+12 6.9519e+12 -1.27363e+13 121.281 
347 1 5.10338 -48.5554 26.937 4.10082e+12 6.10135e+12 -1.25291e+13 1.97989e+12 
12347 1 5.27943 -50.2305 26.937 4.32618e+12 6.73685e+12 -1.25199e+13 2.04645e+12 
12348 1 10.501 -49.4035 26.937 4.32625e+12 6.1009e+12 -1.18848e+13 4.00384e+12 
12341 1 -25.2536 -43.7405 26.937 4.32635e+12 2.02967e+12 -7.81476e+12 -8.52558e+12 
12342 1 -20.5431 -46.1406 26.937 4.32634e+12 3.69466e+12 -9.47963e+12 -7.31588e+12 
342 1 -19.858 -44.6019 26.937 4.10098e+12 3.15809e+12 -9.58777e+12 -7.07796e+12 
12343 1 -15.6076 -48.0352 26.937 4.32625e+12 5.07191e+12 -1.08558e+13 -5.7861e+12 
343 1 -15.0871 -46.4333 26.937 4.10088e+12 4.49053e+12 -1.09191e+13 -5.59791e+12 
344 1 -10.1508 -47.7559 26.937 4.10088e+12 5.48604e+12 -1.19147e+13 -3.87361e+12 
348 1 10.1508 -47.7559 26.937 4.10088e+12 5.48604e+12 -1.19147e+13 3.87361e+12 
349 1 15.0871 -46.4333 26.937 4.10088e+12 4.49053e+12 -1.09191e+13 5.59791e+12 
350 1 19.858 -44.6019 26.937 4.10098e+12 3.15809e+12 -9.58777e+12 7.07796e+12 
12349 1 15.6076 -48.0352 26.937 4.32625e+12 5.07191e+12 -1.08558e+13 5.7861e+12 
12350 1 20.5431 -46.1406 26.937 4.32634e+12 3.69466e+12 -9.47963e+12 7.31588e+12 
12351 1 25.2536 -43.7405 26.937 4.32635e+12 2.02967e+12 -7.81476e+12 8.52558e+12 
12339 1 -33.7959 -37.5342 26.937 4.32635e+12 -1.86364e+12 -3.92165e+12 -9.79063e+12 
12340 1 -29.6874 -40.8612 26.937 4.32624e+12 1.49997e+11 -5.93376e+12 -9.36204e+12 
340 1 -28.6973 -39.4985 26.937 4.10088e+12 -2.71284e+11 -6.15718e+12 -9.05756e+12 
341 1 -24.4114 -42.2818 26.937 4.10099e+12 1.54724e+12 -7.97703e+12 -8.24833e+12 
351 1 24.4114 -42.2818 26.937 4.10099e+12 1.54724e+12 -7.97703e+12 8.24833e+12 
12352 1 29.6874 -40.8612 26.937 4.32624e+12 1.49997e+11 -5.93376e+12 9.36204e+12 
352 1 28.6973 -39.4985 26.937 4.10088e+12 -2.71284e+11 -6.15718e+12 9.05756e+12 
12353 1 33.7959 -37.5342 26.937 4.32635e+12 -1.86364e+12 -3.92165e+12 9.79063e+12 
338 1 -36.2824 -32.6688 26.937 4.101e+12 -4.21054e+12 -2.21944e+12 -9.47224e+12 
12338 1 -37.5342 -33.7959 26.937 4.32635e+12 -3.92165e+12 -1.86364e+12 -9.79063e+12 
339 1 -32.6688 -36.2824 26.937 4.101e+12 -2.21944e+12 -4.21054e+12 -9.47224e+12 
353 1 32.6688 -36.2824 26.937 4.101e+12 -2.21944e+12 -4.21054e+12 9.47224e+12 
354 1 36.2824 -32.6688 26.937 4.101e+12 -4.21054e+12 -2.21944e+12 9.47224e+12 
12354 1 37.5342 -33.7959 26.937 4.32635e+12 -3.92165e+12 -1.86364e+12 9.79063e+12 
336 1 -42.2818 -24.4114 26.937 4.10099e+12 -7.97703e+12 1.54724e+12 -8.24833e+12 
12336 1 -43.7405 -25.2536 26.937 4.32635e+12 -7.81476e+12 2.02967e+12 -8.52558e+12 
12337 1 -40.8612 -29.6874 26.937 4.32624e+12 -5.93376e+12 1.49997e+11 -9.36204e+12 
337 1 -39.4985 -28.6973 26.937 4.10088e+12 -6.15718e+12 -2.71284e+11 -9.05756e+12 
355 1 39.4985 -28.6973 26.937 4.10088e+12 -6.15718e+12 -2.71284e+11 9.05756e+12 
356 1 42.2818 -24.4114 26.937 4.10099e+12 -7.97703e+12 1.54724e+12 8.24833e+12 
12355 1 40.8612 -29.6874 26.937 4.32624e+12 -5.93376e+12 1.49997e+11 9.36204e+12 
12356 1 43.7405 -25.2536 26.937 4.32635e+12 -7.81476e+12 2.02967e+12 8.52558e+12 
12335 1 -46.1406 -20.5431 26.937 4.32634e+12 -9.47963e+12 3.69466e+12 -7.31588e+12 
335 1 -44.6019 -19.858 26.937 4.10098e+12 -9.58777e+12 3.15809e+12 -7.07796e+12 
357 1 44.6019 -19.858 26.937 4.10098e+12 -9.58777e+12 3.15809e+12 7.07796e+12 
12357 1 46.1406 -20.5431 26.937 4.32634e+12 -9.47963e+12 3.69466e+12 7.31588e+12 
334 1 -46.4333 -15.0871 26.937 4.10088e+12 -1.09191e+13 4.49053e+12 -5.59791e+12 
12334 1 -48.0352 -15.6076 26.937 4.32625e+12 -1.08558e+13 5.07191e+12 -5.7861e+12 
358 1 46.4333 -15.0871 26.937 4.10088e+12 -1.09191e+13 4.49053e+12 5.59791e+12 
12358 1 48.0352 -15.6076 26.937 4.32625e+12 -1.08558e+13 5.07191e+12 5.7861e+12 
12333 1 -49.4035 -10.501 26.937 4.32625e+12 -1.18848e+13 6.1009e+12 -4.00384e+12 