ITEM: TIMESTEP
0
ITEM: NUMBER OF ATOMS
24000
ITEM: BOX BOUNDS pp pp pp
-8.0000000000000000e+02 8.0000000000000000e+02
-8.0000000000000000e+02 8.0000000000000000e+02
-8.0000000000000000e+02 8.0000000000000000e+02
ITEM: ATOMS id type x y z c_pte c_csym[1] c_csym[2] c_csym[4] 
41 1 -14.5 -25.1147 1 5.59719e+14 -1.67957e+15 -5.03915e+15 -2.90948e+15 
101 1 -14.5 -25.1147 4 5.59801e+14 -1.67935e+15 -5.03906e+15 -2.90963e+15 
12040 1 -17.6336 -24.2705 1 5.59671e+14 -2.32087e+15 -4.39703e+15 -3.19488e+15 
12041 1 -15 -25.9808 1 5.59729e+14 -1.67948e+15 -5.03912e+15 -2.90953e+15 
12042 1 -12.2021 -27.4064 1 5.59724e+14 -1.11126e+15 -5.60727e+15 -2.49669e+15 
12100 1 -17.6336 -24.2705 4 5.59764e+14 -2.32066e+15 -4.39689e+15 -3.19505e+15 
12101 1 -15 -25.9808 4 5.59822e+14 -1.67923e+15 -5.03902e+15 -2.90969e+15 
12102 1 -12.2021 -27.4064 4 5.59817e+14 -1.11098e+15 -5.6072e+15 -2.49683e+15 
42 1 -11.7954 -26.4928 1 5.59714e+14 -1.11136e+15 -5.60729e+15 -2.49665e+15 
43 1 -8.96149 -27.5806 1 5.59664e+14 -6.41333e+14 -6.07672e+15 -1.97452e+15 
102 1 -11.7954 -26.4928 4 5.59796e+14 -1.11112e+15 -5.60722e+15 -2.49677e+15 
103 1 -8.96149 -27.5806 4 5.59747e+14 -6.41061e+14 -6.07668e+15 -1.97462e+15 
12043 1 -9.27051 -28.5317 1 5.59674e+14 -6.41224e+14 -6.07671e+15 -1.97455e+15 
12044 1 -6.23735 -29.3444 1 5.59677e+14 -2.90071e+14 -6.4279e+15 -1.36633e+15 
12103 1 -9.27051 -28.5317 4 5.59768e+14 -6.4092e+14 -6.07667e+15 -1.97467e+15 
12104 1 -6.23735 -29.3444 4 5.5977e+14 -2.89745e+14 -6.42787e+15 -1.36642e+15 
44 1 -6.02944 -28.3663 1 5.59667e+14 -2.90185e+14 -6.4279e+15 -1.36631e+15 
45 1 -3.03133 -28.8411 1 5.5963e+14 -7.31608e+13 -6.64448e+15 -6.98307e+14 
104 1 -6.02944 -28.3663 4 5.59749e+14 -2.89895e+14 -6.42788e+15 -1.36639e+15 
105 1 -3.03133 -28.8411 4 5.59712e+14 -7.28571e+13 -6.64448e+15 -6.98355e+14 
12045 1 -3.13585 -29.8357 1 5.5964e+14 -7.30428e+13 -6.64448e+15 -6.98317e+14 
12105 1 -3.13585 -29.8357 4 5.59733e+14 -7.27023e+13 -6.64447e+15 -6.98371e+14 
46 1 0 -29 1 5.59689e+14 2.25764e+11 -6.71858e+15 1.62482e+10 
47 1 3.03133 -28.8411 1 5.5963e+14 -7.31676e+13 -6.64448e+15 6.98339e+14 
48 1 6.02944 -28.3663 1 5.59667e+14 -2.90199e+14 -6.42789e+15 1.36634e+15 
106 1 0 -29 4 5.59771e+14 5.36197e+11 -6.71858e+15 -753701 
107 1 3.03133 -28.8411 4 5.59712e+14 -7.28571e+13 -6.64448e+15 6.98355e+14 
108 1 6.02944 -28.3663 4 5.59749e+14 -2.89895e+14 -6.42788e+15 1.36639e+15 
12046 1 0 -30 1 5.59699e+14 3.44623e+11 -6.71858e+15 1.82241e+10 
12047 1 3.13585 -29.8357 1 5.5964e+14 -7.30504e+13 -6.64447e+15 6.98353e+14 
12106 1 0 -30 4 5.59792e+14 6.9275e+11 -6.71858e+15 -697872 
12107 1 3.13585 -29.8357 4 5.59733e+14 -7.27023e+13 -6.64447e+15 6.98371e+14 
49 1 8.96149 -27.5806 1 5.59664e+14 -6.41352e+14 -6.07671e+15 1.97454e+15 
50 1 11.7954 -26.4928 1 5.59714e+14 -1.11139e+15 -5.60726e+15 2.49667e+15 
109 1 8.96149 -27.5806 4 5.59747e+14 -6.41061e+14 -6.07668e+15 1.97462e+15 
110 1 11.7954 -26.4928 4 5.59796e+14 -1.11112e+15 -5.60722e+15 2.49677e+15 
12048 1 6.23735 -29.3444 1 5.59677e+14 -2.90086e+14 -6.42788e+15 1.36636e+15 
12049 1 9.27051 -28.5317 1 5.59674e+14 -6.41245e+14 -6.07669e+15 1.97458e+15 
12108 1 6.23735 -29.3444 4 5.5977e+14 -2.89745e+14 -6.42787e+15 1.36642e+15 
12109 1 9.27051 -28.5317 4 5.59768e+14 -6.4092e+14 -6.07667e+15 1.97467e+15 
51 1 14.5 -25.1147 1 5.59719e+14 -1.67959e+15 -5.03912e+15 2.9095e+15 
111 1 14.5 -25.1147 4 5.59801e+14 -1.67935e+15 -5.03906e+15 2.90963e+15 
12050 1 12.2021 -27.4064 1 5.59724e+14 -1.11129e+15 -5.60724e+15 2.49671e+15 
12051 1 15 -25.9808 1 5.59729e+14 -1.67951e+15 -5.03909e+15 2.90955e+15 
12052 1 17.6336 -24.2705 1 5.59671e+14 -2.3209e+15 -4.39699e+15 3.19489e+15 
12110 1 12.2021 -27.4064 4 5.59817e+14 -1.11098e+15 -5.6072e+15 2.49683e+15 
12111 1 15 -25.9808 4 5.59822e+14 -1.67923e+15 -5.03902e+15 2.90969e+15 
12112 1 17.6336 -24.2705 4 5.59764e+14 -2.32066e+15 -4.39689e+15 3.19505e+15 
38 1 -21.5512 -19.4048 1 5.59727e+14 -3.71055e+15 -3.00826e+15 -3.34123e+15 
39 1 -19.4048 -21.5512 1 5.59727e+14 -3.00822e+15 -3.71058e+15 -3.34122e+15 
98 1 -21.5512 -19.4048 4 5.59809e+14 -3.71043e+15 -3.00807e+15 -3.34138e+15 
99 1 -19.4048 -21.5512 4 5.59809e+14 -3.00807e+15 -3.71043e+15 -3.34138e+15 
12038 1 -22.2943 -20.0739 1 5.59737e+14 -3.71049e+15 -3.00819e+15 -3.34129e+15 
12039 1 -20.0739 -22.2943 1 5.59737e+14 -3.00816e+15 -3.71053e+15 -3.34128e+15 
12098 1 -22.2943 -20.0739 4 5.5983e+14 -3.71036e+15 -3.00798e+15 -3.34146e+15 
12099 1 -20.0739 -22.2943 4 5.5983e+14 -3.00798e+15 -3.71036e+15 -3.34146e+15 
40 1 -17.0458 -23.4615 1 5.59661e+14 -2.32095e+15 -4.39707e+15 -3.19482e+15 
100 1 -17.0458 -23.4615 4 5.59743e+14 -2.32076e+15 -4.39694e+15 -3.19497e+15 
52 1 17.0458 -23.4615 1 5.59661e+14 -2.32098e+15 -4.39704e+15 3.19483e+15 
112 1 17.0458 -23.4615 4 5.59743e+14 -2.32076e+15 -4.39694e+15 3.19497e+15 
53 1 19.4048 -21.5512 1 5.59727e+14 -3.00826e+15 -3.71055e+15 3.34123e+15 
54 1 21.5512 -19.4048 1 5.59727e+14 -3.71058e+15 -3.00822e+15 3.34122e+15 
113 1 19.4048 -21.5512 4 5.59809e+14 -3.00807e+15 -3.71043e+15 3.34138e+15 
114 1 21.5512 -19.4048 4 5.59809e+14 -3.71043e+15 -3.00807e+15 3.34138e+15 
12053 1 20.0739 -22.2943 1 5.59737e+14 -3.00819e+15 -3.71049e+15 3.34129e+15 
12054 1 22.2943 -20.0739 1 5.59737e+14 -3.71053e+15 -3.00816e+15 3.34128e+15 
12113 1 20.0739 -22.2943 4 5.5983e+14 -3.00798e+15 -3.71036e+15 3.34146e+15 
12114 1 22.2943 -20.0739 4 5.5983e+14 -3.71036e+15 -3.00798e+15 3.34146e+15 
36 1 -25.1147 -14.5 1 5.59719e+14 -5.03912e+15 -1.67959e+15 -2.9095e+15 
96 1 -25.1147 -14.5 4 5.59801e+14 -5.03906e+15 -1.67935e+15 -2.90963e+15 
12035 1 -27.4064 -12.2021 1 5.59724e+14 -5.60724e+15 -1.11129e+15 -2.49671e+15 
12036 1 -25.9808 -15 1 5.59729e+14 -5.03909e+15 -1.67951e+15 -2.90955e+15 
12037 1 -24.2705 -17.6336 1 5.59671e+14 -4.39699e+15 -2.3209e+15 -3.19489e+15 
12095 1 -27.4064 -12.2021 4 5.59817e+14 -5.6072e+15 -1.11098e+15 -2.49683e+15 
12096 1 -25.9808 -15 4 5.59822e+14 -5.03902e+15 -1.67923e+15 -2.90969e+15 
12097 1 -24.2705 -17.6336 4 5.59764e+14 -4.39689e+15 -2.32066e+15 -3.19505e+15 
37 1 -23.4615 -17.0458 1 5.59661e+14 -4.39704e+15 -2.32098e+15 -3.19483e+15 
97 1 -23.4615 -17.0458 4 5.59743e+14 -4.39694e+15 -2.32076e+15 -3.19497e+15 
55 1 23.4615 -17.0458 1 5.59661e+14 -4.39707e+15 -2.32095e+15 3.19482e+15 
115 1 23.4615 -17.0458 4 5.59743e+14 -4.39694e+15 -2.32076e+15 3.19497e+15 
56 1 25.1147 -14.5 1 5.59719e+14 -5.03915e+15 -1.67957e+15 2.90948e+15 
116 1 25.1147 -14.5 4 5.59801e+14 -5.03906e+15 -1.67935e+15 2.90963e+15 
12055 1 24.2705 -17.6336 1 5.59671e+14 -4.39703e+15 -2.32087e+15 3.19488e+15 
12056 1 25.9808 -15 1 5.59729e+14 -5.03912e+15 -1.67948e+15 2.90953e+15 
12057 1 27.4064 -12.2021 1 5.59724e+14 -5.60727e+15 -1.11126e+15 2.49669e+15 
12115 1 24.2705 -17.6336 4 5.59764e+14 -4.39689e+15 -2.32066e+15 3.19505e+15 
12116 1 25.9808 -15 4 5.59822e+14 -5.03902e+15 -1.67923e+15 2.90969e+15 
12117 1 27.4064 -12.2021 4 5.59817e+14 -5.6072e+15 -1.11098e+15 2.49683e+15 
34 1 -27.5806 -8.96149 1 5.59664e+14 -6.07671e+15 -6.41352e+14 -1.97454e+15 
35 1 -26.4928 -11.7954 1 5.59714e+14 -5.60726e+15 -1.11139e+15 -2.49667e+15 
94 1 -27.5806 -8.96149 4 5.59747e+14 -6.07668e+15 -6.41061e+14 -1.97462e+15 
95 1 -26.4928 -11.7954 4 5.59796e+14 -5.60722e+15 -1.11112e+15 -2.49677e+15 
12033 1 -29.3444 -6.23735 1 5.59677e+14 -6.42788e+15 -2.90086e+14 -1.36636e+15 
12034 1 -28.5317 -9.27051 1 5.59674e+14 -6.07669e+15 -6.41245e+14 -1.97458e+15 
12093 1 -29.3444 -6.23735 4 5.5977e+14 -6.42787e+15 -2.89745e+14 -1.36642e+15 
12094 1 -28.5317 -9.27051 4 5.59768e+14 -6.07667e+15 -6.4092e+14 -1.97467e+15 
57 1 26.4928 -11.7954 1 5.59714e+14 -5.60729e+15 -1.11136e+15 2.49665e+15 
58 1 27.5806 -8.96149 1 5.59664e+14 -6.07672e+15 -6.41333e+14 1.97452e+15 
117 1 26.4928 -11.7954 4 5.59796e+14 -5.60722e+15 -1.11112e+15 2.49677e+15 
118 1 27.5806 -8.96149 4 5.59747e+14 -6.07668e+15 -6.41061e+14 1.97462e+15 
12058 1 28.5317 -9.27051 1 5.59674e+14 -6.07671e+15 -6.41224e+14 1.97455e+15 
12059 1 29.3444 -6.23735 1 5.59677e+14 -6.4279e+15 -2.90071e+14 1.36633e+15 
12118 1 28.5317 -9.27051 4 5.59768e+14 -6.07667e+15 -6.4092e+14 1.97467e+15 
12119 1 29.3444 -6.23735 4 5.5977e+14 -6.42787e+15 -2.89745e+14 1.36642e+15 
32 1 -28.8411 -3.03133 1 5.5963e+14 -6.64448e+15 -7.31676e+13 -6.98339e+14 
33 1 -28.3663 -6.02944 1 5.59667e+14 -6.42789e+15 -2.90199e+14 -1.36634e+15 
92 1 -28.8411 -3.03133 4 5.59712e+14 -6.64448e+15 -7.28571e+13 -6.98355e+14 
93 1 -28.3663 -6.02944 4 5.59749e+14 -6.42788e+15 -2.89895e+14 -1.36639e+15 
12032 1 -29.8357 -3.13585 1 5.5964e+14 -6.64447e+15 -7.30504e+13 -6.98353e+14 
12092 1 -29.8357 -3.13585 4 5.59733e+14 -6.64447e+15 -7.27023e+13 -6.98371e+14 
59 1 28.3663 -6.02944 1 5.59667e+14 -6.4279e+15 -2.90185e+14 1.36631e+15 
60 1 28.8411 -3.03133 1 5.5963e+14 -6.64448e+15 -7.31608e+13 6.98307e+14 
119 1 28.3663 -6.02944 4 5.59749e+14 -6.42788e+15 -2.89895e+14 1.36639e+15 
120 1 28.8411 -3.03133 4 5.59712e+14 -6.64448e+15 -7.28571e+13 6.98355e+14 
12060 1 29.8357 -3.13585 1 5.5964e+14 -6.64448e+15 -7.30428e+13 6.98317e+14 
12120 1 29.8357 -3.13585 4 5.59733e+14 -6.64447e+15 -7.27023e+13 6.98371e+14 
161 1 -14.5 -25.1147 7 5.59801e+14 -1.67935e+15 -5.03906e+15 -2.90963e+15 
221 1 -14.5 -25.1147 10 5.59801e+14 -1.67935e+15 -5.03906e+15 -2.90963e+15 
12160 1 -17.6336 -24.2705 7 5.59764e+14 -2.32066e+15 -4.39689e+15 -3.19505e+15 
12161 1 -15 -25.9808 7 5.59822e+14 -1.67923e+15 -5.03902e+15 -2.90969e+15 
12162 1 -12.2021 -27.4064 7 5.59817e+14 -1.11098e+15 -5.6072e+15 -2.49683e+15 
12220 1 -17.6336 -24.2705 10 5.59764e+14 -2.32066e+15 -4.39689e+15 -3.19505e+15 
12221 1 -15 -25.9808 10 5.59822e+14 -1.67923e+15 -5.03902e+15 -2.90969e+15 
12222 1 -12.2021 -27.4064 10 5.59817e+14 -1.11098e+15 -5.6072e+15 -2.49683e+15 
162 1 -11.7954 -26.4928 7 5.59796e+14 -1.11112e+15 -5.60722e+15 -2.49677e+15 
163 1 -8.96149 -27.5806 7 5.59747e+14 -6.41061e+14 -6.07668e+15 -1.97462e+15 
222 1 -11.7954 -26.4928 10 5.59796e+14 -1.11112e+15 -5.60722e+15 -2.49677e+15 
223 1 -8.96149 -27.5806 10 5.59747e+14 -6.41061e+14 -6.07668e+15 -1.97462e+15 
12163 1 -9.27051 -28.5317 7 5.59768e+14 -6.4092e+14 -6.07667e+15 -1.97467e+15 
12164 1 -6.23735 -29.3444 7 5.5977e+14 -2.89745e+14 -6.42787e+15 -1.36642e+15 
12223 1 -9.27051 -28.5317 10 5.59768e+14 -6.4092e+14 -6.07667e+15 -1.97467e+15 
12224 1 -6.23735 -29.3444 10 5.5977e+14 -2.89745e+14 -6.42787e+15 -1.36642e+15 
164 1 -6.02944 -28.3663 7 5.59749e+14 -2.89895e+14 -6.42788e+15 -1.36639e+15 
165 1 -3.03133 -28.8411 7 5.59712e+14 -7.28571e+13 -6.64448e+15 -6.98355e+14 
224 1 -6.02944 -28.3663 10 5.59749e+14 -2.89895e+14 -6.42788e+15 -1.36639e+15 
225 1 -3.03133 -28.8411 10 5.59712e+14 -7.28571e+13 -6.64448e+15 -6.98355e+14 
12165 1 -3.13585 -29.8357 7 5.59733e+14 -7.27023e+13 -6.64447e+15 -6.98371e+14 
12225 1 -3.13585 -29.8357 10 5.59733e+14 -7.27023e+13 -6.64447e+15 -6.98371e+14 
166 1 0 -29 7 5.59771e+14 5.36227e+11 -6.71858e+15 -89752.2 
167 1 3.03133 -28.8411 7 5.59712e+14 -7.28571e+13 -6.64448e+15 6.98355e+14 
168 1 6.02944 -28.3663 7 5.59749e+14 -2.89895e+14 -6.42788e+15 1.36639e+15 
226 1 0 -29 10 5.59771e+14 5.3623e+11 -6.71858e+15 4.5179e-06 
227 1 3.03133 -28.8411 10 5.59712e+14 -7.28571e+13 -6.64448e+15 6.98355e+14 
228 1 6.02944 -28.3663 10 5.59749e+14 -2.89895e+14 -6.42788e+15 1.36639e+15 
12166 1 0 -30 7 5.59792e+14 6.92778e+11 -6.71858e+15 -89491 
12167 1 3.13585 -29.8357 7 5.59733e+14 -7.27023e+13 -6.64447e+15 6.98371e+14 
12226 1 0 -30 10 5.59792e+14 6.92781e+11 -6.71858e+15 -7.94992e-07 
12227 1 3.13585 -29.8357 10 5.59733e+14 -7.27023e+13 -6.64447e+15 6.98371e+14 
169 1 8.96149 -27.5806 7 5.59747e+14 -6.41061e+14 -6.07668e+15 1.97462e+15 
170 1 11.7954 -26.4928 7 5.59796e+14 -1.11112e+15 -5.60722e+15 2.49677e+15 
229 1 8.96149 -27.5806 10 5.59747e+14 -6.41061e+14 -6.07668e+15 1.97462e+15 
230 1 11.7954 -26.4928 10 5.59796e+14 -1.11112e+15 -5.60722e+15 2.49677e+15 
12168 1 6.23735 -29.3444 7 5.5977e+14 -2.89745e+14 -6.42787e+15 1.36642e+15 
12169 1 9.27051 -28.5317 7 5.59768e+14 -6.4092e+14 -6.07667e+15 1.97467e+15 
12228 1 6.23735 -29.3444 10 5.5977e+14 -2.89745e+14 -6.42787e+15 1.36642e+15 
12229 1 9.27051 -28.5317 10 5.59768e+14 -6.4092e+14 -6.07667e+15 1.97467e+15 
171 1 14.5 -25.1147 7 5.59801e+14 -1.67935e+15 -5.03906e+15 2.90963e+15 
231 1 14.5 -25.1147 10 5.59801e+14 -1.67935e+15 -5.03906e+15 2.90963e+15 
12170 1 12.2021 -27.4064 7 5.59817e+14 -1.11098e+15 -5.6072e+15 2.49683e+15 
12171 1 15 -25.9808 7 5.59822e+14 -1.67923e+15 -5.03902e+15 2.90969e+15 
12172 1 17.6336 -24.2705 7 5.59764e+14 -2.32066e+15 -4.39689e+15 3.19505e+15 
12230 1 12.2021 -27.4064 10 5.59817e+14 -1.11098e+15 -5.6072e+15 2.49683e+15 
12231 1 15 -25.9808 10 5.59822e+14 -1.67923e+15 -5.03902e+15 2.90969e+15 
12232 1 17.6336 -24.2705 10 5.59764e+14 -2.32066e+15 -4.39689e+15 3.19505e+15 
158 1 -21.5512 -19.4048 7 5.59809e+14 -3.71043e+15 -3.00807e+15 -3.34138e+15 
159 1 -19.4048 -21.5512 7 5.59809e+14 -3.00807e+15 -3.71043e+15 -3.34138e+15 
218 1 -21.5512 -19.4048 10 5.59809e+14 -3.71043e+15 -3.00807e+15 -3.34138e+15 
219 1 -19.4048 -21.5512 10 5.59809e+14 -3.00807e+15 -3.71043e+15 -3.34138e+15 
12158 1 -22.2943 -20.0739 7 5.5983e+14 -3.71036e+15 -3.00798e+15 -3.34146e+15 
12159 1 -20.0739 -22.2943 7 5.5983e+14 -3.00798e+15 -3.71036e+15 -3.34146e+15 
12218 1 -22.2943 -20.0739 10 5.5983e+14 -3.71036e+15 -3.00798e+15 -3.34146e+15 
12219 1 -20.0739 -22.2943 10 5.5983e+14 -3.00798e+15 -3.71036e+15 -3.34146e+15 
160 1 -17.0458 -23.4615 7 5.59743e+14 -2.32076e+15 -4.39694e+15 -3.19497e+15 
220 1 -17.0458 -23.4615 10 5.59743e+14 -2.32076e+15 -4.39694e+15 -3.19497e+15 
172 1 17.0458 -23.4615 7 5.59743e+14 -2.32076e+15 -4.39694e+15 3.19497e+15 
232 1 17.0458 -23.4615 10 5.59743e+14 -2.32076e+15 -4.39694e+15 3.19497e+15 
173 1 19.4048 -21.5512 7 5.59809e+14 -3.00807e+15 -3.71043e+15 3.34138e+15 
174 1 21.5512 -19.4048 7 5.59809e+14 -3.71043e+15 -3.00807e+15 3.34138e+15 
233 1 19.4048 -21.5512 10 5.59809e+14 -3.00807e+15 -3.71043e+15 3.34138e+15 
234 1 21.5512 -19.4048 10 5.59809e+14 -3.71043e+15 -3.00807e+15 3.34138e+15 
12173 1 20.0739 -22.2943 7 5.5983e+14 -3.00798e+15 -3.71036e+15 3.34146e+15 
12174 1 22.2943 -20.0739 7 5.5983e+14 -3.71036e+15 -3.00798e+15 3.34146e+15 
12233 1 20.0739 -22.2943 10 5.5983e+14 -3.00798e+15 -3.71036e+15 3.34146e+15 
12234 1 22.2943 -20.0739 10 5.5983e+14 -3.71036e+15 -3.00798e+15 3.34146e+15 
156 1 -25.1147 -14.5 7 5.59801e+14 -5.03906e+15 -1.67935e+15 -2.90963e+15 
216 1 -25.1147 -14.5 10 5.59801e+14 -5.03906e+15 -1.67935e+15 -2.90963e+15 
12155 1 -27.4064 -12.2021 7 5.59817e+14 -5.6072e+15 -1.11098e+15 -2.49683e+15 
12156 1 -25.9808 -15 7 5.59822e+14 -5.03902e+15 -1.67923e+15 -2.90969e+15 
12157 1 -24.2705 -17.6336 7 5.59764e+14 -4.39689e+15 -2.32066e+15 -3.19505e+15 
12215 1 -27.4064 -12.2021 10 5.59817e+14 -5.6072e+15 -1.11098e+15 -2.49683e+15 
12216 1 -25.9808 -15 10 5.59822e+14 -5.03902e+15 -1.67923e+15 -2.90969e+15 
12217 1 -24.2705 -17.6336 10 5.59764e+14 -4.39689e+15 -2.32066e+15 -3.19505e+15 
157 1 -23.4615 -17.0458 7 5.59743e+14 -4.39694e+15 -2.32076e+15 -3.19497e+15 
217 1 -23.4615 -17.0458 10 5.59743e+14 -4.39694e+15 -2.32076e+15 -3.19497e+15 
175 1 23.4615 -17.0458 7 5.59743e+14 -4.39694e+15 -2.32076e+15 3.19497e+15 
235 1 23.4615 -17.0458 10 5.59743e+14 -4.39694e+15 -2.32076e+15 3.19497e+15 
176 1 25.1147 -14.5 7 5.59801e+14 -5.03906e+15 -1.67935e+15 2.90963e+15 
236 1 25.1147 -14.5 10 5.59801e+14 -5.03906e+15 -1.67935e+15 2.90963e+15 
12175 1 24.2705 -17.6336 7 5.59764e+14 -4.39689e+15 -2.32066e+15 3.19505e+15 
12176 1 25.9808 -15 7 5.59822e+14 -5.03902e+15 -1.67923e+15 2.90969e+15 
12177 1 27.4064 -12.2021 7 5.59817e+14 -5.6072e+15 -1.11098e+15 2.49683e+15 
12235 1 24.2705 -17.6336 10 5.59764e+14 -4.39689e+15 -2.32066e+15 3.19505e+15 
12236 1 25.9808 -15 10 5.59822e+14 -5.03902e+15 -1.67923e+15 2.90969e+15 
12237 1 27.4064 -12.2021 10 5.59817e+14 -5.6072e+15 -1.11098e+15 2.49683e+15 
154 1 -27.5806 -8.96149 7 5.59747e+14 -6.07668e+15 -6.41061e+14 -1.97462e+15 
155 1 -26.4928 -11.7954 7 5.59796e+14 -5.60722e+15 -1.11112e+15 -2.49677e+15 
214 1 -27.5806 -8.96149 10 5.59747e+14 -6.07668e+15 -6.41061e+14 -1.97462e+15 
215 1 -26.4928 -11.7954 10 5.59796e+14 -5.60722e+15 -1.11112e+15 -2.49677e+15 
12153 1 -29.3444 -6.23735 7 5.5977e+14 -6.42787e+15 -2.89745e+14 -1.36642e+15 
12154 1 -28.5317 -9.27051 7 5.59768e+14 -6.07667e+15 -6.4092e+14 -1.97467e+15 
12213 1 -29.3444 -6.23735 10 5.5977e+14 -6.42787e+15 -2.89745e+14 -1.36642e+15 
12214 1 -28.5317 -9.27051 10 5.59768e+14 -6.07667e+15 -6.4092e+14 -1.97467e+15 
177 1 26.4928 -11.7954 7 5.59796e+14 -5.60722e+15 -1.11112e+15 2.49677e+15 
178 1 27.5806 -8.96149 7 5.59747e+14 -6.07668e+15 -6.41061e+14 1.97462e+15 
237 1 26.4928 -11.7954 10 5.59796e+14 -5.60722e+15 -1.11112e+15 2.49677e+15 
238 1 27.5806 -8.96149 10 5.59747e+14 -6.07668e+15 -6.41061e+14 1.97462e+15 
12178 1 28.5317 -9.27051 7 5.59768e+14 -6.07667e+15 -6.4092e+14 1.97467e+15 
12179 1 29.3444 -6.23735 7 5.5977e+14 -6.42787e+15 -2.89745e+14 1.36642e+15 
12238 1 28.5317 -9.27051 10 5.59768e+14 -6.07667e+15 -6.4092e+14 1.97467e+15 
12239 1 29.3444 -6.23735 10 5.5977e+14 -6.42787e+15 -2.89745e+14 1.36642e+15 
152 1 -28.8411 -3.03133 7 5.59712e+14 -6.64448e+15 -7.28571e+13 -6.98355e+14 
153 1 -28.3663 -6.02944 7 5.59749e+14 -6.42788e+15 -2.89895e+14 -1.36639e+15 
212 1 -28.8411 -3.03133 10 5.59712e+14 -6.64448e+15 -7.28571e+13 -6.98355e+14 
213 1 -28.3663 -6.02944 10 5.59749e+14 -6.42788e+15 -2.89895e+14 -1.36639e+15 
12152 1 -29.8357 -3.13585 7 5.59733e+14 -6.64447e+15 -7.27023e+13 -6.98371e+14 
12212 1 -29.8357 -3.13585 10 5.59733e+14 -6.64447e+15 -7.27023e+13 -6.98371e+14 
179 1 28.3663 -6.02944 7 5.59749e+14 -6.42788e+15 -2.89895e+14 1.36639e+15 
180 1 28.8411 -3.03133 7 5.59712e+14 -6.64448e+15 -7.28571e+13 6.98355e+14 
239 1 28.3663 -6.02944 10 5.59749e+14 -6.42788e+15 -2.89895e+14 1.36639e+15 
240 1 28.8411 -3.03133 10 5.59712e+14 -6.64448e+15 -7.28571e+13 6.98355e+14 
12180 1 29.8357 -3.13585 7 5.59733e+14 -6.64447e+15 -7.27023e+13 6.98371e+14 
12240 1 29.8357 -3.13585 10 5.59733e+14 -6.64447e+15 -7.27023e+13 6.98371e+14 
281 1 -14.5 -25.1147 13 5.59801e+14 -1.67935e+15 -5.03906e+15 -2.90963e+15 
341 1 -14.5 -25.1147 16 5.59801e+14 -1.67935e+15 -5.03906e+15 -2.90963e+15 
12280 1 -17.6336 -24.2705 13 5.59764e+14 -2.32066e+15 -4.39689e+15 -3.19505e+15 
12281 1 -15 -25.9808 13 5.59822e+14 -1.67923e+15 -5.03902e+15 -2.90969e+15 
12282 1 -12.2021 -27.4064 13 5.59817e+14 -1.11098e+15 -5.6072e+15 -2.49683e+15 
12340 1 -17.6336 -24.2705 16 5.59764e+14 -2.32066e+15 -4.39689e+15 -3.19505e+15 
12341 1 -15 -25.9808 16 5.59822e+14 -1.67923e+15 -5.03902e+15 -2.90969e+15 
12342 1 -12.2021 -27.4064 16 5.59817e+14 -1.11098e+15 -5.6072e+15 -2.49683e+15 
282 1 -11.7954 -26.4928 13 5.59796e+14 -1.11112e+15 -5.60722e+15 -2.49677e+15 
283 1 -8.96149 -27.5806 13 5.59747e+14 -6.41061e+14 -6.07668e+15 -1.97462e+15 
342 1 -11.7954 -26.4928 16 5.59796e+14 -1.11112e+15 -5.60722e+15 -2.49677e+15 
343 1 -8.96149 -27.5806 16 5.59747e+14 -6.41061e+14 -6.07668e+15 -1.97462e+15 
12283 1 -9.27051 -28.5317 13 5.59768e+14 -6.4092e+14 -6.07667e+15 -1.97467e+15 
12284 1 -6.23735 -29.3444 13 5.5977e+14 -2.89745e+14 -6.42787e+15 -1.36642e+15 
12343 1 -9.27051 -28.5317 16 5.59768e+14 -6.4092e+14 -6.07667e+15 -1.97467e+15 
12344 1 -6.23735 -29.3444 16 5.5977e+14 -2.89745e+14 -6.42787e+15 -1.36642e+15 
284 1 -6.02944 -28.3663 13 5.59749e+14 -2.89895e+14 -6.42788e+15 -1.36639e+15 
285 1 -3.03133 -28.8411 13 5.59712e+14 -7.28571e+13 -6.64448e+15 -6.98355e+14 
344 1 -6.02944 -28.3663 16 5.59749e+14 -2.89895e+14 -6.42788e+15 -1.36639e+15 
345 1 -3.03133 -28.8411 16 5.59712e+14 -7.28571e+13 -6.64448e+15 -6.98355e+14 
12285 1 -3.13585 -29.8357 13 5.59733e+14 -7.27023e+13 -6.64447e+15 -6.98371e+14 
12345 1 -3.13585 -29.8357 16 5.59733e+14 -7.27023e+13 -6.64447e+15 -6.98371e+14 
286 1 0 -29 13 5.59771e+14 5.3623e+11 -6.71858e+15 8.16708e-09 
287 1 3.03133 -28.8411 13 5.59712e+14 -7.28571e+13 -6.64448e+15 6.98355e+14 
288 1 6.02944 -28.3663 13 5.59749e+14 -2.89895e+14 -6.42788e+15 1.36639e+15 
346 1 0 -29 16 5.59771e+14 5.3623e+11 -6.71858e+15 2.23807e-06 
347 1 3.03133 -28.8411 16 5.59712e+14 -7.28571e+13 -6.64448e+15 6.98355e+14 
348 1 6.02944 -28.3663 16 5.59749e+14 -2.89895e+14 -6.42788e+15 1.36639e+15 
12286 1 0 -30 13 5.59792e+14 6.92781e+11 -6.71858e+15 4.01088e-06 
12287 1 3.13585 -29.8357 13 5.59733e+14 -7.27023e+13 -6.64447e+15 6.98371e+14 
12346 1 0 -30 16 5.59792e+14 6.92781e+11 -6.71858e+15 6.90018e-07 
12347 1 3.13585 -29.8357 16 5.59733e+14 -7.27023e+13 -6.64447e+15 6.98371e+14 
289 1 8.96149 -27.5806 13 5.59747e+14 -6.41061e+14 -6.07668e+15 1.97462e+15 
290 1 11.7954 -26.4928 13 5.59796e+14 -1.11112e+15 -5.60722e+15 2.49677e+15 
349 1 8.96149 -27.5806 16 5.59747e+14 -6.41061e+14 -6.07668e+15 1.97462e+15 
350 1 11.7954 -26.4928 16 5.59796e+14 -1.11112e+15 -5.60722e+15 2.49677e+15 
12288 1 6.23735 -29.3444 13 5.5977e+14 -2.89745e+14 -6.42787e+15 1.36642e+15 
12289 1 9.27051 -28.5317 13 5.59768e+14 -6.4092e+14 -6.07667e+15 1.97467e+15 
12348 1 6.23735 -29.3444 16 5.5977e+14 -2.89745e+14 -6.42787e+15 1.36642e+15 
12349 1 9.27051 -28.5317 16 5.59768e+14 -6.4092e+14 -6.07667e+15 1.97467e+15 
291 1 14.5 -25.1147 13 5.59801e+14 -1.67935e+15 -5.03906e+15 2.90963e+15 
351 1 14.5 -25.1147 16 5.59801e+14 -1.67935e+15 -5.03906e+15 2.90963e+15 
12290 1 12.2021 -27.4064 13 5.59817e+14 -1.11098e+15 -5.6072e+15 2.49683e+15 
12291 1 15 -25.9808 13 5.59822e+14 -1.67923e+15 -5.03902e+15 2.90969e+15 
12292 1 17.6336 -24.2705 13 5.59764e+14 -2.32066e+15 -4.39689e+15 3.19505e+15 
12350 1 12.2021 -27.4064 16 5.59817e+14 -1.11098e+15 -5.6072e+15 2.49683e+15 
12351 1 15 -25.9808 16 5.59822e+14 -1.67923e+15 -5.03902e+15 2.90969e+15 
12352 1 17.6336 -24.2705 16 5.59764e+14 -2.32066e+15 -4.39689e+15 3.19505e+15 
278 1 -21.5512 -19.4048 13 5.59809e+14 -3.71043e+15 -3.00807e+15 -3.34138e+15 
279 1 -19.4048 -21.5512 13 5.59809e+14 -3.00807e+15 -3.71043e+15 -3.34138e+15 
338 1 -21.5512 -19.4048 16 5.59809e+14 -3.71043e+15 -3.00807e+15 -3.34138e+15 
339 1 -19.4048 -21.5512 16 5.59809e+14 -3.00807e+15 -3.71043e+15 -3.34138e+15 
12278 1 -22.2943 -20.0739 13 5.5983e+14 -3.71036e+15 -3.00798e+15 -3.34146e+15 
12279 1 -20.0739 -22.2943 13 5.5983e+14 -3.00798e+15 -3.71036e+15 -3.34146e+15 
12338 1 -22.2943 -20.0739 16 5.5983e+14 -3.71036e+15 -3.00798e+15 -3.34146e+15 
12339 1 -20.0739 -22.2943 16 5.5983e+14 -3.00798e+15 -3.71036e+15 -3.34146e+15 
280 1 -17.0458 -23.4615 13 5.59743e+14 -2.32076e+15 -4.39694e+15 -3.19497e+15 
340 1 -17.0458 -23.4615 16 5.59743e+14 -2.32076e+15 -4.39694e+15 -3.19497e+15 
292 1 17.0458 -23.4615 13 5.59743e+14 -2.32076e+15 -4.39694e+15 3.19497e+15 
352 1 17.0458 -23.4615 16 5.59743e+14 -2.32076e+15 -4.39694e+15 3.19497e+15 
293 1 19.4048 -21.5512 13 5.59809e+14 -3.00807e+15 -3.71043e+15 3.34138e+15 
294 1 21.5512 -19.4048 13 5.59809e+14 -3.71043e+15 -3.00807e+15 3.34138e+15 
353 1 19.4048 -21.5512 16 5.59809e+14 -3.00807e+15 -3.71043e+15 3.34138e+15 
354 1 21.5512 -19.4048 16 5.59809e+14 -3.71043e+15 -3.00807e+15 3.34138e+15 
12293 1 20.0739 -22.2943 13 5.5983e+14 -3.00798e+15 -3.71036e+15 3.34146e+15 
12294 1 22.2943 -20.0739 13 5.5983e+14 -3.71036e+15 -3.00798e+15 3.34146e+15 
12353 1 20.0739 -22.2943 16 5.5983e+14 -3.00798e+15 -3.71036e+15 3.34146e+15 
12354 1 22.2943 -20.0739 16 5.5983e+14 -3.71036e+15 -3.00798e+15 3.34146e+15 
276 1 -25.1147 -14.5 13 5.59801e+14 -5.03906e+15 -1.67935e+15 -2.90963e+15 
336 1 -25.1147 -14.5 16 5.59801e+14 -5.03906e+15 -1.67935e+15 -2.90963e+15 
12275 1 -27.4064 -12.2021 13 5.59817e+14 -5.6072e+15 -1.11098e+15 -2.49683e+15 
12276 1 -25.9808 -15 13 5.59822e+14 -5.03902e+15 -1.67923e+15 -2.90969e+15 
12277 1 -24.2705 -17.6336 13 5.59764e+14 -4.39689e+15 -2.32066e+15 -3.19505e+15 
12335 1 -27.4064 -12.2021 16 5.59817e+14 -5.6072e+15 -1.11098e+15 -2.49683e+15 
12336 1 -25.9808 -15 16 5.59822e+14 -5.03902e+15 -1.67923e+15 -2.90969e+15 
12337 1 -24.2705 -17.6336 16 5.59764e+14 -4.39689e+15 -2.32066e+15 -3.19505e+15 
277 1 -23.4615 -17.0458 13 5.59743e+14 -4.39694e+15 -2.32076e+15 -3.19497e+15 
337 1 -23.4615 -17.0458 16 5.59743e+14 -4.39694e+15 -2.32076e+15 -3.19497e+15 
295 1 23.4615 -17.0458 13 5.59743e+14 -4.39694e+15 -2.32076e+15 3.19497e+15 
355 1 23.4615 -17.0458 16 5.59743e+14 -4.39694e+15 -2.32076e+15 3.19497e+15 
296 1 25.1147 -14.5 13 5.59801e+14 -5.03906e+15 -1.67935e+15 2.90963e+15 
356 1 25.1147 -14.5 16 5.59801e+14 -5.03906e+15 -1.67935e+15 2.90963e+15 
12295 1 24.2705 -17.6336 13 5.59764e+14 -4.39689e+15 -2.32066e+15 3.19505e+15 
12296 1 25.9808 -15 13 5.59822e+14 -5.03902e+15 -1.67923e+15 2.90969e+15 
12297 1 27.4064 -12.2021 13 5.59817e+14 -5.6072e+15 -1.11098e+15 2.49683e+15 
12355 1 24.2705 -17.6336 16 5.59764e+14 -4.39689e+15 -2.32066e+15 3.19505e+15 
12356 1 25.9808 -15 16 5.59822e+14 -5.03902e+15 -1.67923e+15 2.90969e+15 
12357 1 27.4064 -12.2021 16 5.59817e+14 -5.6072e+15 -1.11098e+15 2.49683e+15 
274 1 -27.5806 -8.96149 13 5.59747e+14 -6.07668e+15 -6.41061e+14 -1.97462e+15 
275 1 -26.4928 -11.7954 13 5.59796e+14 -5.60722e+15 -1.11112e+15 -2.49677e+15 
334 1 -27.5806 -8.96149 16 5.59747e+14 -6.07668e+15 -6.41061e+14 -1.97462e+15 
335 1 -26.4928 -11.7954 16 5.59796e+14 -5.60722e+15 -1.11112e+15 -2.49677e+15 
12273 1 -29.3444 -6.23735 13 5.5977e+14 -6.42787e+15 -2.89745e+14 -1.36642e+15 
12274 1 -28.5317 -9.27051 13 5.59768e+14 -6.07667e+15 -6.4092e+14 -1.97467e+15 
12333 1 -29.3444 -6.23735 16 5.5977e+14 -6.42787e+15 -2.89745e+14 -1.36642e+15 
12334 1 -28.5317 -9.27051 16 5.59768e+14 -6.07667e+15 -6.4092e+14 -1.97467e+15 
297 1 26.4928 -11.7954 13 5.59796e+14 -5.60722e+15 -1.11112e+15 2.49677e+15 
298 1 27.5806 -8.96149 13 5.59747e+14 -6.07668e+15 -6.41061e+14 1.97462e+15 
357 1 26.4928 -11.7954 16 5.59796e+14 -5.60722e+15 -1.11112e+15 2.49677e+15 
358 1 27.5806 -8.96149 16 5.59747e+14 -6.07668e+15 -6.41061e+14 1.97462e+15 
12298 1 28.5317 -9.27051 13 5.59768e+14 -6.07667e+15 -6.4092e+14 1.97467e+15 
12299 1 29.3444 -6.23735 13 5.5977e+14 -6.42787e+15 -2.89745e+14 1.36642e+15 
12358 1 28.5317 -9.27051 16 5.59768e+14 -6.07667e+15 -6.4092e+14 1.97467e+15 
12359 1 29.3444 -6.23735 16 5.5977e+14 -6.42787e+15 -2.89745e+14 1.36642e+15 
272 1 -28.8411 -3.03133 13 5.59712e+14 -6.64448e+15 -7.28571e+13 -6.98355e+14 
273 1 -28.3663 -6.02944 13 5.59749e+14 -6.42788e+15 -2.89895e+14 -1.36639e+15 
332 1 -28.8411 -3.03133 16 5.59712e+14 -6.64448e+15 -7.28571e+13 -6.98355e+14 
333 1 -28.3663 -6.02944 16 5.59749e+14 -6.42788e+15 -2.89895e+14 -1.36639e+15 
12272 1 -29.8357 -3.13585 13 5.59733e+14 -6.64447e+15 -7.27023e+13 -6.98371e+14 
12332 1 -29.8357 -3.13585 16 5.59733e+14 -6.64447e+15 -7.27023e+13 -6.98371e+14 
299 1 28.3663 -6.02944 13 5.59749e+14 -6.42788e+15 -2.89895e+14 1.36639e+15 
300 1 28.8411 -3.03133 13 5.59712e+14 -6.64448e+15 -7.28571e+13 6.98355e+14 
359 1 28.3663 -6.02944 16 5.59749e+14 -6.42788e+15 -2.89895e+14 1.36639e+15 
360 1 28.8411 -3.03133 16 5.59712e+14 -6.64448e+15 -7.28571e+13 6.98355e+14 
12300 1 29.8357 -3.13585 13 5.59733e+14 -6.64447e+15 -7.27023e+13 6.98371e+14 
12360 1 29.8357 -3.13585 16 5.59733e+14 -6.64447e+15 -7.27023e+13 6.98371e+14 
401 1 -14.5 -25.1147 19 5.59801e+14 -1.67935e+15 -5.03906e+15 -2.90963e+15 
461 1 -14.5 -25.1147 22 5.59801e+14 -1.67935e+15 -5.03906e+15 -2.90963e+15 
12400 1 -17.6336 -24.2705 19 5.59764e+14 -2.32066e+15 -4.39689e+15 -3.19505e+15 
12401 1 -15 -25.9808 19 5.59822e+14 -1.67923e+15 -5.03902e+15 -2.90969e+15 
12402 1 -12.2021 -27.4064 19 5.59817e+14 -1.11098e+15 -5.6072e+15 -2.49683e+15 
12460 1 -17.6336 -24.2705 22 5.59764e+14 -2.32066e+15 -4.39689e+15 -3.19505e+15 
12461 1 -15 -25.9808 22 5.59822e+14 -1.67923e+15 -5.03902e+15 -2.90969e+15 
12462 1 -12.2021 -27.4064 22 5.59817e+14 -1.11098e+15 -5.6072e+15 -2.49683e+15 
402 1 -11.7954 -26.4928 19 5.59796e+14 -1.11112e+15 -5.60722e+15 -2.49677e+15 
403 1 -8.96149 -27.5806 19 5.59747e+14 -6.41061e+14 -6.07668e+15 -1.97462e+15 
462 1 -11.7954 -26.4928 22 5.59796e+14 -1.11112e+15 -5.60722e+15 -2.49677e+15 
463 1 -8.96149 -27.5806 22 5.59747e+14 -6.41061e+14 -6.07668e+15 -1.97462e+15 
12403 1 -9.27051 -28.5317 19 5.59768e+14 -6.4092e+14 -6.07667e+15 -1.97467e+15 
12404 1 -6.23735 -29.3444 19 5.5977e+14 -2.89745e+14 -6.42787e+15 -1.36642e+15 
12463 1 -9.27051 -28.5317 22 5.59768e+14 -6.4092e+14 -6.07667e+15 -1.97467e+15 
12464 1 -6.23735 -29.3444 22 5.5977e+14 -2.89745e+14 -6.42787e+15 -1.36642e+15 
404 1 -6.02944 -28.3663 19 5.59749e+14 -2.89895e+14 -6.42788e+15 -1.36639e+15 
405 1 -3.03133 -28.8411 19 5.59712e+14 -7.28571e+13 -6.64448e+15 -6.98355e+14 
464 1 -6.02944 -28.3663 22 5.59749e+14 -2.89895e+14 -6.42788e+15 -1.36639e+15 
465 1 -3.03133 -28.8411 22 5.59712e+14 -7.28571e+13 -6.64448e+15 -6.98355e+14 
12405 1 -3.13585 -29.8357 19 5.59733e+14 -7.27023e+13 -6.64447e+15 -6.98371e+14 
12465 1 -3.13585 -29.8357 22 5.59733e+14 -7.27023e+13 -6.64447e+15 -6.98371e+14 
406 1 0 -29 19 5.59771e+14 5.3623e+11 -6.71858e+15 -2.86625e-06 
407 1 3.03133 -28.8411 19 5.59712e+14 -7.28571e+13 -6.64448e+15 6.98355e+14 
408 1 6.02944 -28.3663 19 5.59749e+14 -2.89895e+14 -6.42788e+15 1.36639e+15 
466 1 0 -29 22 5.59771e+14 5.3623e+11 -6.71858e+15 5.07975e-06 
467 1 3.03133 -28.8411 22 5.59712e+14 -7.28571e+13 -6.64448e+15 6.98355e+14 
468 1 6.02944 -28.3663 22 5.59749e+14 -2.89895e+14 -6.42788e+15 1.36639e+15 
12406 1 0 -30 19 5.59792e+14 6.92781e+11 -6.71858e+15 -1.16133e-06 
12407 1 3.13585 -29.8357 19 5.59733e+14 -7.27023e+13 -6.64447e+15 6.98371e+14 
12466 1 0 -30 22 5.59792e+14 6.92781e+11 -6.71858e+15 -7.35108e-07 
12467 1 3.13585 -29.8357 22 5.59733e+14 -7.27023e+13 -6.64447e+15 6.98371e+14 
409 1 8.96149 -27.5806 19 5.59747e+14 -6.41061e+14 -6.07668e+15 1.97462e+15 
410 1 11.7954 -26.4928 19 5.59796e+14 -1.11112e+15 -5.60722e+15 2.49677e+15 
469 1 8.96149 -27.5806 22 5.59747e+14 -6.41061e+14 -6.07668e+15 1.97462e+15 
470 1 11.7954 -26.4928 22 5.59796e+14 -1.11112e+15 -5.60722e+15 2.49677e+15 
12408 1 6.23735 -29.3444 19 5.5977e+14 -2.89745e+14 -6.42787e+15 1.36642e+15 