ITEM: TIMESTEP
1000
ITEM: NUMBER OF ATOMS
24000
ITEM: BOX BOUNDS pp pp pp
-1.3472774129428792e+03 1.3472774129428792e+03
-1.3472774129428792e+03 1.3472774129428792e+03
-1.3472774129428792e+03 1.3472774129428792e+03
ITEM: ATOMS id type x y z c_pte c_csym[1] c_csym[2] c_csym[4] 
41 1 -24.4194 -42.2956 1.6841 2.82778e+12 2.27134e+11 -8.54223e+12 -7.39816e+12 
101 1 -24.4194 -42.2956 6.73639 4.10708e+12 1.54892e+12 -7.9848e+12 -8.25652e+12 
12040 1 -29.6966 -40.8739 1.6841 2.98677e+12 -1.081e+12 -6.74708e+12 -8.37457e+12 
12041 1 -25.2615 -43.7541 1.6841 2.98688e+12 5.97919e+11 -8.42735e+12 -7.60312e+12 
12042 1 -20.5495 -46.155 1.6841 2.98688e+12 2.08008e+12 -9.90938e+12 -6.49874e+12 
12100 1 -29.6966 -40.8739 6.73639 4.33244e+12 1.49862e+11 -5.93992e+12 -9.37131e+12 
12101 1 -25.2615 -43.7541 6.73639 4.33255e+12 2.03139e+12 -7.82279e+12 -8.53403e+12 
12102 1 -20.5495 -46.155 6.73639 4.33254e+12 3.69804e+12 -9.48931e+12 -7.32313e+12 
42 1 -19.8645 -44.6165 1.6841 2.82776e+12 1.66947e+12 -9.98446e+12 -6.32484e+12 
43 1 -15.092 -46.4485 1.6841 2.82766e+12 2.85726e+12 -1.11711e+13 -4.97476e+12 
102 1 -19.8645 -44.6165 6.73639 4.10707e+12 3.16137e+12 -9.59714e+12 -7.08498e+12 
103 1 -15.092 -46.4485 6.73639 4.10696e+12 4.49514e+12 -1.09298e+13 -5.60346e+12 
12043 1 -15.6124 -48.0502 1.6841 2.98678e+12 3.30038e+12 -1.11285e+13 -5.10997e+12 
12044 1 -10.5043 -49.4189 1.6841 2.98679e+12 4.20518e+12 -1.20334e+13 -3.4983e+12 
12103 1 -15.6124 -48.0502 6.73639 4.33245e+12 5.07665e+12 -1.08668e+13 -5.79183e+12 
12104 1 -10.5043 -49.4189 6.73639 4.33245e+12 6.10666e+12 -1.18969e+13 -4.00781e+12 
44 1 -10.1542 -47.7716 1.6841 2.82767e+12 3.73831e+12 -1.20522e+13 -3.40767e+12 
45 1 -5.10505 -48.5712 1.6841 2.82761e+12 4.27433e+12 -1.25874e+13 -1.69152e+12 
104 1 -10.1542 -47.7716 6.73639 4.10696e+12 5.49163e+12 -1.19264e+13 -3.87745e+12 
105 1 -5.10505 -48.5712 6.73639 4.1069e+12 6.10755e+12 -1.25414e+13 -1.98185e+12 
12045 1 -5.28108 -50.2461 1.6841 2.98671e+12 4.7551e+12 -1.25825e+13 -1.73358e+12 
12105 1 -5.28108 -50.2461 6.73639 4.33238e+12 6.74324e+12 -1.25326e+13 -2.04848e+12 
46 1 2.07934e-07 -48.8388 1.6841 2.82772e+12 4.4418e+12 -1.27562e+13 9.82074e+10 
47 1 5.10505 -48.5712 1.6841 2.8276e+12 4.23348e+12 -1.25466e+13 1.88362e+12 
48 1 10.1542 -47.7716 1.6841 2.82767e+12 3.65843e+12 -1.19724e+13 3.5871e+12 
106 1 -2.27374e-13 -48.8388 6.73639 4.10703e+12 6.31586e+12 -1.2751e+13 20154.9 
107 1 5.10505 -48.5712 6.73639 4.1069e+12 6.10755e+12 -1.25414e+13 1.98185e+12 
108 1 10.1542 -47.7716 6.73639 4.10696e+12 5.49163e+12 -1.19264e+13 3.87745e+12 
12046 1 2.17222e-07 -50.5229 1.6841 2.98682e+12 4.92608e+12 -1.27548e+13 1.06522e+11 
12047 1 5.28108 -50.2461 1.6841 2.98672e+12 4.71081e+12 -1.25382e+13 1.94198e+12 
12106 1 -2.27374e-13 -50.5229 6.73639 4.33248e+12 6.95851e+12 -1.27492e+13 21889.3 
12107 1 5.28108 -50.2461 6.73639 4.33238e+12 6.74324e+12 -1.25326e+13 2.04848e+12 
49 1 15.092 -46.4485 1.6841 2.82767e+12 2.74182e+12 -1.10557e+13 5.13365e+12 
50 1 19.8645 -44.6165 1.6841 2.82776e+12 1.52351e+12 -9.8385e+12 6.45626e+12 
109 1 15.092 -46.4485 6.73639 4.10696e+12 4.49514e+12 -1.09298e+13 5.60346e+12 
110 1 19.8645 -44.6165 6.73639 4.10707e+12 3.16137e+12 -9.59714e+12 7.08498e+12 
12048 1 10.5043 -49.4189 1.6841 2.98678e+12 4.11852e+12 -1.19467e+13 3.69293e+12 
12049 1 15.6124 -48.0502 1.6841 2.98678e+12 3.17515e+12 -1.10033e+13 5.28234e+12 
12108 1 10.5043 -49.4189 6.73639 4.33245e+12 6.10666e+12 -1.18969e+13 4.00781e+12 
12109 1 15.6124 -48.0502 6.73639 4.33245e+12 5.07665e+12 -1.08668e+13 5.79183e+12 
51 1 24.4194 -42.2956 1.6841 2.82778e+12 5.70353e+10 -8.37214e+12 7.49636e+12 
111 1 24.4194 -42.2956 6.73639 4.10708e+12 1.54892e+12 -7.9848e+12 8.25652e+12 
12050 1 20.5495 -46.155 1.6841 2.98687e+12 1.92175e+12 -9.75106e+12 6.64129e+12 
12051 1 25.2615 -43.7541 1.6841 2.98688e+12 4.13416e+11 -8.24284e+12 7.70965e+12 
12052 1 29.6966 -40.8739 1.6841 2.98677e+12 -1.28363e+12 -6.54446e+12 8.44041e+12 
12110 1 20.5495 -46.155 6.73639 4.33254e+12 3.69804e+12 -9.48931e+12 7.32313e+12 
12111 1 25.2615 -43.7541 6.73639 4.33255e+12 2.03139e+12 -7.82279e+12 8.53403e+12 
12112 1 29.6966 -40.8739 6.73639 4.33244e+12 1.49862e+11 -5.93992e+12 9.37131e+12 
38 1 -36.2943 -32.6795 1.6841 2.82778e+12 -4.95884e+12 -3.35645e+12 -8.56257e+12 
39 1 -32.6795 -36.2943 1.6841 2.82779e+12 -3.16111e+12 -5.15417e+12 -8.54205e+12 
98 1 -36.2943 -32.6795 6.73639 4.10709e+12 -4.21458e+12 -2.2215e+12 -9.48164e+12 
99 1 -32.6795 -36.2943 6.73639 4.10709e+12 -2.2215e+12 -4.21458e+12 -9.48164e+12 
12038 1 -37.5458 -33.8064 1.6841 2.98689e+12 -4.73297e+12 -3.09666e+12 -8.8036e+12 
12039 1 -33.8064 -37.5458 1.6841 2.9869e+12 -2.88477e+12 -4.94484e+12 -8.78134e+12 
12098 1 -37.5458 -33.8064 6.73639 4.33255e+12 -3.92583e+12 -1.86577e+12 -9.80033e+12 
12099 1 -33.8064 -37.5458 6.73639 4.33255e+12 -1.86577e+12 -3.92583e+12 -9.80033e+12 
40 1 -28.7067 -39.5114 1.6841 2.82766e+12 -1.40638e+12 -6.90738e+12 -8.14748e+12 
100 1 -28.7067 -39.5114 6.73639 4.10697e+12 -2.71405e+11 -6.16314e+12 -9.06654e+12 
52 1 28.7067 -39.5114 1.6841 2.82766e+12 -1.59317e+12 -6.72059e+12 8.20817e+12 
112 1 28.7067 -39.5114 6.73639 4.10697e+12 -2.71405e+11 -6.16314e+12 9.06654e+12 
53 1 32.6795 -36.2943 1.6841 2.82778e+12 -3.35645e+12 -4.95884e+12 8.56257e+12 
54 1 36.2943 -32.6795 1.6841 2.82779e+12 -5.15417e+12 -3.16111e+12 8.54205e+12 
113 1 32.6795 -36.2943 6.73639 4.10709e+12 -2.2215e+12 -4.21458e+12 9.48164e+12 
114 1 36.2943 -32.6795 6.73639 4.10709e+12 -4.21458e+12 -2.2215e+12 9.48164e+12 
12053 1 33.8064 -37.5458 1.6841 2.98689e+12 -3.09666e+12 -4.73297e+12 8.8036e+12 
12054 1 37.5458 -33.8064 1.6841 2.9869e+12 -4.94484e+12 -2.88477e+12 8.78134e+12 
12113 1 33.8064 -37.5458 6.73639 4.33255e+12 -1.86577e+12 -3.92583e+12 9.80033e+12 
12114 1 37.5458 -33.8064 6.73639 4.33255e+12 -3.92583e+12 -1.86577e+12 9.80033e+12 
36 1 -42.2956 -24.4194 1.6841 2.82778e+12 -8.37214e+12 5.70353e+10 -7.49636e+12 
96 1 -42.2956 -24.4194 6.73639 4.10708e+12 -7.9848e+12 1.54892e+12 -8.25652e+12 
12035 1 -46.155 -20.5495 1.6841 2.98687e+12 -9.75106e+12 1.92175e+12 -6.64129e+12 
12036 1 -43.7541 -25.2615 1.6841 2.98688e+12 -8.24284e+12 4.13416e+11 -7.70965e+12 
12037 1 -40.8739 -29.6966 1.6841 2.98677e+12 -6.54446e+12 -1.28363e+12 -8.44041e+12 
12095 1 -46.155 -20.5495 6.73639 4.33254e+12 -9.48931e+12 3.69804e+12 -7.32313e+12 
12096 1 -43.7541 -25.2615 6.73639 4.33255e+12 -7.82279e+12 2.03139e+12 -8.53403e+12 
12097 1 -40.8739 -29.6966 6.73639 4.33244e+12 -5.93992e+12 1.49862e+11 -9.37131e+12 
37 1 -39.5114 -28.7067 1.6841 2.82766e+12 -6.72059e+12 -1.59317e+12 -8.20817e+12 
97 1 -39.5114 -28.7067 6.73639 4.10697e+12 -6.16314e+12 -2.71405e+11 -9.06654e+12 
55 1 39.5114 -28.7067 1.6841 2.82766e+12 -6.90738e+12 -1.40638e+12 8.14748e+12 
115 1 39.5114 -28.7067 6.73639 4.10697e+12 -6.16314e+12 -2.71405e+11 9.06654e+12 
56 1 42.2956 -24.4194 1.6841 2.82778e+12 -8.54223e+12 2.27134e+11 7.39816e+12 
116 1 42.2956 -24.4194 6.73639 4.10708e+12 -7.9848e+12 1.54892e+12 8.25652e+12 
12055 1 40.8739 -29.6966 1.6841 2.98677e+12 -6.74708e+12 -1.081e+12 8.37457e+12 
12056 1 43.7541 -25.2615 1.6841 2.98688e+12 -8.42735e+12 5.97919e+11 7.60312e+12 
12057 1 46.155 -20.5495 1.6841 2.98688e+12 -9.90938e+12 2.08008e+12 6.49874e+12 
12115 1 40.8739 -29.6966 6.73639 4.33244e+12 -5.93992e+12 1.49862e+11 9.37131e+12 
12116 1 43.7541 -25.2615 6.73639 4.33255e+12 -7.82279e+12 2.03139e+12 8.53403e+12 
12117 1 46.155 -20.5495 6.73639 4.33254e+12 -9.48931e+12 3.69804e+12 7.32313e+12 
34 1 -46.4485 -15.092 1.6841 2.82767e+12 -1.10557e+13 2.74182e+12 -5.13365e+12 
35 1 -44.6165 -19.8645 1.6841 2.82776e+12 -9.8385e+12 1.52351e+12 -6.45626e+12 
94 1 -46.4485 -15.092 6.73639 4.10696e+12 -1.09298e+13 4.49514e+12 -5.60346e+12 
95 1 -44.6165 -19.8645 6.73639 4.10707e+12 -9.59714e+12 3.16137e+12 -7.08498e+12 
12033 1 -49.4189 -10.5043 1.6841 2.98678e+12 -1.19467e+13 4.11852e+12 -3.69293e+12 
12034 1 -48.0502 -15.6124 1.6841 2.98678e+12 -1.10033e+13 3.17515e+12 -5.28234e+12 
12093 1 -49.4189 -10.5043 6.73639 4.33245e+12 -1.18969e+13 6.10666e+12 -4.00781e+12 
12094 1 -48.0502 -15.6124 6.73639 4.33245e+12 -1.08668e+13 5.07665e+12 -5.79183e+12 
57 1 44.6165 -19.8645 1.6841 2.82776e+12 -9.98446e+12 1.66947e+12 6.32484e+12 
58 1 46.4485 -15.092 1.6841 2.82766e+12 -1.11711e+13 2.85726e+12 4.97476e+12 
117 1 44.6165 -19.8645 6.73639 4.10707e+12 -9.59714e+12 3.16137e+12 7.08498e+12 
118 1 46.4485 -15.092 6.73639 4.10696e+12 -1.09298e+13 4.49514e+12 5.60346e+12 
12058 1 48.0502 -15.6124 1.6841 2.98678e+12 -1.11285e+13 3.30038e+12 5.10997e+12 
12059 1 49.4189 -10.5043 1.6841 2.98679e+12 -1.20334e+13 4.20518e+12 3.4983e+12 
12118 1 48.0502 -15.6124 6.73639 4.33245e+12 -1.08668e+13 5.07665e+12 5.79183e+12 
12119 1 49.4189 -10.5043 6.73639 4.33245e+12 -1.18969e+13 6.10666e+12 4.00781e+12 
32 1 -48.5712 -5.10505 1.6841 2.8276e+12 -1.25466e+13 4.23348e+12 -1.88362e+12 
33 1 -47.7716 -10.1542 1.6841 2.82767e+12 -1.19724e+13 3.65843e+12 -3.5871e+12 
92 1 -48.5712 -5.10505 6.73639 4.1069e+12 -1.25414e+13 6.10755e+12 -1.98185e+12 
93 1 -47.7716 -10.1542 6.73639 4.10696e+12 -1.19264e+13 5.49163e+12 -3.87745e+12 
12032 1 -50.2461 -5.28108 1.6841 2.98672e+12 -1.25382e+13 4.71081e+12 -1.94198e+12 
12092 1 -50.2461 -5.28108 6.73639 4.33238e+12 -1.25326e+13 6.74324e+12 -2.04848e+12 
59 1 47.7716 -10.1542 1.6841 2.82767e+12 -1.20522e+13 3.73831e+12 3.40767e+12 
60 1 48.5712 -5.10505 1.6841 2.82761e+12 -1.25874e+13 4.27433e+12 1.69152e+12 
119 1 47.7716 -10.1542 6.73639 4.10696e+12 -1.19264e+13 5.49163e+12 3.87745e+12 
120 1 48.5712 -5.10505 6.73639 4.1069e+12 -1.25414e+13 6.10755e+12 1.98185e+12 
12060 1 50.2461 -5.28108 1.6841 2.98671e+12 -1.25825e+13 4.7551e+12 1.73358e+12 
12120 1 50.2461 -5.28108 6.73639 4.33238e+12 -1.25326e+13 6.74324e+12 2.04848e+12 
161 1 -24.4194 -42.2956 11.7887 4.10708e+12 1.54892e+12 -7.9848e+12 -8.25652e+12 
221 1 -24.4194 -42.2956 16.841 4.10708e+12 1.54892e+12 -7.9848e+12 -8.25652e+12 
12160 1 -29.6966 -40.8739 11.7887 4.33244e+12 1.49863e+11 -5.93992e+12 -9.37131e+12 
12161 1 -25.2615 -43.7541 11.7887 4.33255e+12 2.03139e+12 -7.82279e+12 -8.53403e+12 
12162 1 -20.5495 -46.155 11.7887 4.33254e+12 3.69804e+12 -9.48931e+12 -7.32313e+12 
12220 1 -29.6966 -40.8739 16.841 4.33244e+12 1.49863e+11 -5.93992e+12 -9.37131e+12 
12221 1 -25.2615 -43.7541 16.841 4.33255e+12 2.03139e+12 -7.82279e+12 -8.53403e+12 
12222 1 -20.5495 -46.155 16.841 4.33254e+12 3.69804e+12 -9.48931e+12 -7.32313e+12 
162 1 -19.8645 -44.6165 11.7887 4.10706e+12 3.16137e+12 -9.59713e+12 -7.08498e+12 
163 1 -15.092 -46.4485 11.7887 4.10696e+12 4.49514e+12 -1.09298e+13 -5.60346e+12 
222 1 -19.8645 -44.6165 16.841 4.10706e+12 3.16137e+12 -9.59713e+12 -7.08498e+12 
223 1 -15.092 -46.4485 16.841 4.10696e+12 4.49514e+12 -1.09298e+13 -5.60346e+12 
12163 1 -15.6124 -48.0502 11.7887 4.33245e+12 5.07665e+12 -1.08668e+13 -5.79183e+12 
12164 1 -10.5043 -49.4189 11.7887 4.33245e+12 6.10666e+12 -1.18969e+13 -4.00781e+12 
12223 1 -15.6124 -48.0502 16.841 4.33245e+12 5.07665e+12 -1.08668e+13 -5.79183e+12 
12224 1 -10.5043 -49.4189 16.841 4.33245e+12 6.10666e+12 -1.18969e+13 -4.00781e+12 
164 1 -10.1542 -47.7716 11.7887 4.10696e+12 5.49164e+12 -1.19264e+13 -3.87745e+12 
165 1 -5.10505 -48.5712 11.7887 4.1069e+12 6.10755e+12 -1.25414e+13 -1.98185e+12 
224 1 -10.1542 -47.7716 16.841 4.10696e+12 5.49164e+12 -1.19264e+13 -3.87745e+12 
225 1 -5.10505 -48.5712 16.841 4.1069e+12 6.10755e+12 -1.25414e+13 -1.98185e+12 
12165 1 -5.28108 -50.2461 11.7887 4.33238e+12 6.74324e+12 -1.25326e+13 -2.04848e+12 
12225 1 -5.28108 -50.2461 16.841 4.33238e+12 6.74324e+12 -1.25326e+13 -2.04848e+12 
166 1 -2.27374e-13 -48.8388 11.7887 4.10703e+12 6.31586e+12 -1.2751e+13 34.6695 
167 1 5.10505 -48.5712 11.7887 4.1069e+12 6.10755e+12 -1.25414e+13 1.98185e+12 
168 1 10.1542 -47.7716 11.7887 4.10696e+12 5.49164e+12 -1.19264e+13 3.87745e+12 
226 1 -2.27374e-13 -48.8388 16.841 4.10703e+12 6.31586e+12 -1.2751e+13 35.7678 
227 1 5.10505 -48.5712 16.841 4.1069e+12 6.10755e+12 -1.25414e+13 1.98185e+12 
228 1 10.1542 -47.7716 16.841 4.10696e+12 5.49164e+12 -1.19264e+13 3.87745e+12 
12166 1 -2.27374e-13 -50.5229 11.7887 4.33248e+12 6.95851e+12 -1.27492e+13 -29.8684 
12167 1 5.28108 -50.2461 11.7887 4.33238e+12 6.74324e+12 -1.25326e+13 2.04848e+12 
12226 1 -2.27374e-13 -50.5229 16.841 4.33248e+12 6.95851e+12 -1.27492e+13 11.0052 
12227 1 5.28108 -50.2461 16.841 4.33238e+12 6.74324e+12 -1.25326e+13 2.04848e+12 
169 1 15.092 -46.4485 11.7887 4.10696e+12 4.49514e+12 -1.09298e+13 5.60346e+12 
170 1 19.8645 -44.6165 11.7887 4.10706e+12 3.16137e+12 -9.59713e+12 7.08498e+12 
229 1 15.092 -46.4485 16.841 4.10696e+12 4.49514e+12 -1.09298e+13 5.60346e+12 
230 1 19.8645 -44.6165 16.841 4.10706e+12 3.16137e+12 -9.59713e+12 7.08498e+12 
12168 1 10.5043 -49.4189 11.7887 4.33245e+12 6.10666e+12 -1.18969e+13 4.00781e+12 
12169 1 15.6124 -48.0502 11.7887 4.33245e+12 5.07665e+12 -1.08668e+13 5.79183e+12 
12228 1 10.5043 -49.4189 16.841 4.33245e+12 6.10666e+12 -1.18969e+13 4.00781e+12 
12229 1 15.6124 -48.0502 16.841 4.33245e+12 5.07665e+12 -1.08668e+13 5.79183e+12 
171 1 24.4194 -42.2956 11.7887 4.10708e+12 1.54892e+12 -7.9848e+12 8.25652e+12 
231 1 24.4194 -42.2956 16.841 4.10708e+12 1.54892e+12 -7.9848e+12 8.25652e+12 
12170 1 20.5495 -46.155 11.7887 4.33254e+12 3.69804e+12 -9.48931e+12 7.32313e+12 
12171 1 25.2615 -43.7541 11.7887 4.33255e+12 2.03139e+12 -7.82279e+12 8.53403e+12 
12172 1 29.6966 -40.8739 11.7887 4.33244e+12 1.49863e+11 -5.93992e+12 9.37131e+12 
12230 1 20.5495 -46.155 16.841 4.33254e+12 3.69804e+12 -9.48931e+12 7.32313e+12 
12231 1 25.2615 -43.7541 16.841 4.33255e+12 2.03139e+12 -7.82279e+12 8.53403e+12 
12232 1 29.6966 -40.8739 16.841 4.33244e+12 1.49863e+11 -5.93992e+12 9.37131e+12 
158 1 -36.2943 -32.6795 11.7887 4.10709e+12 -4.21458e+12 -2.2215e+12 -9.48164e+12 
159 1 -32.6795 -36.2943 11.7887 4.10709e+12 -2.2215e+12 -4.21458e+12 -9.48164e+12 
218 1 -36.2943 -32.6795 16.841 4.10709e+12 -4.21458e+12 -2.2215e+12 -9.48164e+12 
219 1 -32.6795 -36.2943 16.841 4.10709e+12 -2.2215e+12 -4.21458e+12 -9.48164e+12 
12158 1 -37.5458 -33.8064 11.7887 4.33255e+12 -3.92582e+12 -1.86577e+12 -9.80033e+12 
12159 1 -33.8064 -37.5458 11.7887 4.33255e+12 -1.86577e+12 -3.92582e+12 -9.80033e+12 
12218 1 -37.5458 -33.8064 16.841 4.33255e+12 -3.92582e+12 -1.86577e+12 -9.80033e+12 
12219 1 -33.8064 -37.5458 16.841 4.33255e+12 -1.86577e+12 -3.92582e+12 -9.80033e+12 
160 1 -28.7067 -39.5114 11.7887 4.10697e+12 -2.71404e+11 -6.16314e+12 -9.06654e+12 
220 1 -28.7067 -39.5114 16.841 4.10697e+12 -2.71404e+11 -6.16314e+12 -9.06654e+12 
172 1 28.7067 -39.5114 11.7887 4.10697e+12 -2.71404e+11 -6.16314e+12 9.06654e+12 
232 1 28.7067 -39.5114 16.841 4.10697e+12 -2.71404e+11 -6.16314e+12 9.06654e+12 
173 1 32.6795 -36.2943 11.7887 4.10709e+12 -2.2215e+12 -4.21458e+12 9.48164e+12 
174 1 36.2943 -32.6795 11.7887 4.10709e+12 -4.21458e+12 -2.2215e+12 9.48164e+12 
233 1 32.6795 -36.2943 16.841 4.10709e+12 -2.2215e+12 -4.21458e+12 9.48164e+12 
234 1 36.2943 -32.6795 16.841 4.10709e+12 -4.21458e+12 -2.2215e+12 9.48164e+12 
12173 1 33.8064 -37.5458 11.7887 4.33255e+12 -1.86577e+12 -3.92582e+12 9.80033e+12 
12174 1 37.5458 -33.8064 11.7887 4.33255e+12 -3.92582e+12 -1.86577e+12 9.80033e+12 
12233 1 33.8064 -37.5458 16.841 4.33255e+12 -1.86577e+12 -3.92582e+12 9.80033e+12 
12234 1 37.5458 -33.8064 16.841 4.33255e+12 -3.92582e+12 -1.86577e+12 9.80033e+12 
156 1 -42.2956 -24.4194 11.7887 4.10708e+12 -7.9848e+12 1.54892e+12 -8.25652e+12 
216 1 -42.2956 -24.4194 16.841 4.10708e+12 -7.9848e+12 1.54892e+12 -8.25652e+12 
12155 1 -46.155 -20.5495 11.7887 4.33254e+12 -9.48931e+12 3.69804e+12 -7.32313e+12 
12156 1 -43.7541 -25.2615 11.7887 4.33255e+12 -7.82279e+12 2.03139e+12 -8.53403e+12 
12157 1 -40.8739 -29.6966 11.7887 4.33244e+12 -5.93992e+12 1.49863e+11 -9.37131e+12 
12215 1 -46.155 -20.5495 16.841 4.33254e+12 -9.48931e+12 3.69804e+12 -7.32313e+12 
12216 1 -43.7541 -25.2615 16.841 4.33255e+12 -7.82279e+12 2.03139e+12 -8.53403e+12 
12217 1 -40.8739 -29.6966 16.841 4.33244e+12 -5.93992e+12 1.49863e+11 -9.37131e+12 
157 1 -39.5114 -28.7067 11.7887 4.10697e+12 -6.16314e+12 -2.71404e+11 -9.06654e+12 
217 1 -39.5114 -28.7067 16.841 4.10697e+12 -6.16314e+12 -2.71404e+11 -9.06654e+12 
175 1 39.5114 -28.7067 11.7887 4.10697e+12 -6.16314e+12 -2.71404e+11 9.06654e+12 
235 1 39.5114 -28.7067 16.841 4.10697e+12 -6.16314e+12 -2.71404e+11 9.06654e+12 
176 1 42.2956 -24.4194 11.7887 4.10708e+12 -7.9848e+12 1.54892e+12 8.25652e+12 
236 1 42.2956 -24.4194 16.841 4.10708e+12 -7.9848e+12 1.54892e+12 8.25652e+12 
12175 1 40.8739 -29.6966 11.7887 4.33244e+12 -5.93992e+12 1.49863e+11 9.37131e+12 
12176 1 43.7541 -25.2615 11.7887 4.33255e+12 -7.82279e+12 2.03139e+12 8.53403e+12 
12177 1 46.155 -20.5495 11.7887 4.33254e+12 -9.48931e+12 3.69804e+12 7.32313e+12 
12235 1 40.8739 -29.6966 16.841 4.33244e+12 -5.93992e+12 1.49863e+11 9.37131e+12 
12236 1 43.7541 -25.2615 16.841 4.33255e+12 -7.82279e+12 2.03139e+12 8.53403e+12 
12237 1 46.155 -20.5495 16.841 4.33254e+12 -9.48931e+12 3.69804e+12 7.32313e+12 
154 1 -46.4485 -15.092 11.7887 4.10696e+12 -1.09298e+13 4.49514e+12 -5.60346e+12 
155 1 -44.6165 -19.8645 11.7887 4.10706e+12 -9.59713e+12 3.16137e+12 -7.08498e+12 
214 1 -46.4485 -15.092 16.841 4.10696e+12 -1.09298e+13 4.49514e+12 -5.60346e+12 
215 1 -44.6165 -19.8645 16.841 4.10706e+12 -9.59713e+12 3.16137e+12 -7.08498e+12 
12153 1 -49.4189 -10.5043 11.7887 4.33245e+12 -1.18969e+13 6.10666e+12 -4.00781e+12 
12154 1 -48.0502 -15.6124 11.7887 4.33245e+12 -1.08668e+13 5.07665e+12 -5.79183e+12 
12213 1 -49.4189 -10.5043 16.841 4.33245e+12 -1.18969e+13 6.10666e+12 -4.00781e+12 
12214 1 -48.0502 -15.6124 16.841 4.33245e+12 -1.08668e+13 5.07665e+12 -5.79183e+12 
177 1 44.6165 -19.8645 11.7887 4.10706e+12 -9.59713e+12 3.16137e+12 7.08498e+12 
178 1 46.4485 -15.092 11.7887 4.10696e+12 -1.09298e+13 4.49514e+12 5.60346e+12 
237 1 44.6165 -19.8645 16.841 4.10706e+12 -9.59713e+12 3.16137e+12 7.08498e+12 
238 1 46.4485 -15.092 16.841 4.10696e+12 -1.09298e+13 4.49514e+12 5.60346e+12 
12178 1 48.0502 -15.6124 11.7887 4.33245e+12 -1.08668e+13 5.07665e+12 5.79183e+12 
12179 1 49.4189 -10.5043 11.7887 4.33245e+12 -1.18969e+13 6.10666e+12 4.00781e+12 
12238 1 48.0502 -15.6124 16.841 4.33245e+12 -1.08668e+13 5.07665e+12 5.79183e+12 
12239 1 49.4189 -10.5043 16.841 4.33245e+12 -1.18969e+13 6.10666e+12 4.00781e+12 
152 1 -48.5712 -5.10505 11.7887 4.1069e+12 -1.25414e+13 6.10755e+12 -1.98185e+12 
153 1 -47.7716 -10.1542 11.7887 4.10696e+12 -1.19264e+13 5.49164e+12 -3.87745e+12 
212 1 -48.5712 -5.10505 16.841 4.1069e+12 -1.25414e+13 6.10755e+12 -1.98185e+12 
213 1 -47.7716 -10.1542 16.841 4.10696e+12 -1.19264e+13 5.49164e+12 -3.87745e+12 
12152 1 -50.2461 -5.28108 11.7887 4.33238e+12 -1.25326e+13 6.74324e+12 -2.04848e+12 
12212 1 -50.2461 -5.28108 16.841 4.33238e+12 -1.25326e+13 6.74324e+12 -2.04848e+12 
179 1 47.7716 -10.1542 11.7887 4.10696e+12 -1.19264e+13 5.49164e+12 3.87745e+12 
180 1 48.5712 -5.10505 11.7887 4.1069e+12 -1.25414e+13 6.10755e+12 1.98185e+12 
239 1 47.7716 -10.1542 16.841 4.10696e+12 -1.19264e+13 5.49164e+12 3.87745e+12 
240 1 48.5712 -5.10505 16.841 4.1069e+12 -1.25414e+13 6.10755e+12 1.98185e+12 
12180 1 50.2461 -5.28108 11.7887 4.33238e+12 -1.25326e+13 6.74324e+12 2.04848e+12 
12240 1 50.2461 -5.28108 16.841 4.33238e+12 -1.25326e+13 6.74324e+12 2.04848e+12 
281 1 -24.4194 -42.2956 21.8933 4.10708e+12 1.54892e+12 -7.9848e+12 -8.25652e+12 
341 1 -24.4194 -42.2956 26.9455 4.10708e+12 1.54892e+12 -7.9848e+12 -8.25652e+12 
12280 1 -29.6966 -40.8739 21.8933 4.33244e+12 1.49863e+11 -5.93992e+12 -9.37131e+12 
12281 1 -25.2615 -43.7541 21.8933 4.33255e+12 2.03139e+12 -7.82279e+12 -8.53403e+12 
12282 1 -20.5495 -46.155 21.8933 4.33254e+12 3.69804e+12 -9.48931e+12 -7.32313e+12 
12340 1 -29.6966 -40.8739 26.9455 4.33244e+12 1.49863e+11 -5.93992e+12 -9.37131e+12 
12341 1 -25.2615 -43.7541 26.9455 4.33255e+12 2.03139e+12 -7.82279e+12 -8.53403e+12 
12342 1 -20.5495 -46.155 26.9455 4.33254e+12 3.69804e+12 -9.48931e+12 -7.32313e+12 
282 1 -19.8645 -44.6165 21.8933 4.10706e+12 3.16137e+12 -9.59713e+12 -7.08498e+12 
283 1 -15.092 -46.4485 21.8933 4.10696e+12 4.49514e+12 -1.09298e+13 -5.60346e+12 
342 1 -19.8645 -44.6165 26.9455 4.10706e+12 3.16137e+12 -9.59713e+12 -7.08498e+12 
343 1 -15.092 -46.4485 26.9455 4.10696e+12 4.49514e+12 -1.09298e+13 -5.60346e+12 
12283 1 -15.6124 -48.0502 21.8933 4.33245e+12 5.07665e+12 -1.08668e+13 -5.79183e+12 
12284 1 -10.5043 -49.4189 21.8933 4.33245e+12 6.10666e+12 -1.18969e+13 -4.00781e+12 
12343 1 -15.6124 -48.0502 26.9455 4.33245e+12 5.07665e+12 -1.08668e+13 -5.79183e+12 
12344 1 -10.5043 -49.4189 26.9455 4.33245e+12 6.10666e+12 -1.18969e+13 -4.00781e+12 
284 1 -10.1542 -47.7716 21.8933 4.10696e+12 5.49164e+12 -1.19264e+13 -3.87745e+12 
285 1 -5.10505 -48.5712 21.8933 4.1069e+12 6.10755e+12 -1.25414e+13 -1.98185e+12 
344 1 -10.1542 -47.7716 26.9455 4.10696e+12 5.49164e+12 -1.19264e+13 -3.87745e+12 
345 1 -5.10505 -48.5712 26.9455 4.1069e+12 6.10755e+12 -1.25414e+13 -1.98185e+12 
12285 1 -5.28108 -50.2461 21.8933 4.33238e+12 6.74324e+12 -1.25326e+13 -2.04848e+12 
12345 1 -5.28108 -50.2461 26.9455 4.33238e+12 6.74324e+12 -1.25326e+13 -2.04848e+12 
286 1 -2.27374e-13 -48.8388 21.8933 4.10703e+12 6.31586e+12 -1.2751e+13 32.3854 
287 1 5.10505 -48.5712 21.8933 4.1069e+12 6.10755e+12 -1.25414e+13 1.98185e+12 
288 1 10.1542 -47.7716 21.8933 4.10696e+12 5.49164e+12 -1.19264e+13 3.87745e+12 
346 1 -2.27374e-13 -48.8388 26.9455 4.10703e+12 6.31586e+12 -1.2751e+13 -7.86365 
347 1 5.10505 -48.5712 26.9455 4.1069e+12 6.10755e+12 -1.25414e+13 1.98185e+12 
348 1 10.1542 -47.7716 26.9455 4.10696e+12 5.49164e+12 -1.19264e+13 3.87745e+12 
12286 1 -2.27374e-13 -50.5229 21.8933 4.33248e+12 6.95851e+12 -1.27492e+13 -33.1655 
12287 1 5.28108 -50.2461 21.8933 4.33238e+12 6.74324e+12 -1.25326e+13 2.04848e+12 
12346 1 -2.27374e-13 -50.5229 26.9455 4.33248e+12 6.95851e+12 -1.27492e+13 18.6805 
12347 1 5.28108 -50.2461 26.9455 4.33238e+12 6.74324e+12 -1.25326e+13 2.04848e+12 
289 1 15.092 -46.4485 21.8933 4.10696e+12 4.49514e+12 -1.09298e+13 5.60346e+12 
290 1 19.8645 -44.6165 21.8933 4.10706e+12 3.16137e+12 -9.59713e+12 7.08498e+12 
349 1 15.092 -46.4485 26.9455 4.10696e+12 4.49514e+12 -1.09298e+13 5.60346e+12 
350 1 19.8645 -44.6165 26.9455 4.10706e+12 3.16137e+12 -9.59713e+12 7.08498e+12 
12288 1 10.5043 -49.4189 21.8933 4.33245e+12 6.10666e+12 -1.18969e+13 4.00781e+12 
12289 1 15.6124 -48.0502 21.8933 4.33245e+12 5.07665e+12 -1.08668e+13 5.79183e+12 
12348 1 10.5043 -49.4189 26.9455 4.33245e+12 6.10666e+12 -1.18969e+13 4.00781e+12 
12349 1 15.6124 -48.0502 26.9455 4.33245e+12 5.07665e+12 -1.08668e+13 5.79183e+12 
291 1 24.4194 -42.2956 21.8933 4.10708e+12 1.54892e+12 -7.9848e+12 8.25652e+12 
351 1 24.4194 -42.2956 26.9455 4.10708e+12 1.54892e+12 -7.9848e+12 8.25652e+12 
12290 1 20.5495 -46.155 21.8933 4.33254e+12 3.69804e+12 -9.48931e+12 7.32313e+12 
12291 1 25.2615 -43.7541 21.8933 4.33255e+12 2.03139e+12 -7.82279e+12 8.53403e+12 
12292 1 29.6966 -40.8739 21.8933 4.33244e+12 1.49863e+11 -5.93992e+12 9.37131e+12 
12350 1 20.5495 -46.155 26.9455 4.33254e+12 3.69804e+12 -9.48931e+12 7.32313e+12 
12351 1 25.2615 -43.7541 26.9455 4.33255e+12 2.03139e+12 -7.82279e+12 8.53403e+12 
12352 1 29.6966 -40.8739 26.9455 4.33244e+12 1.49863e+11 -5.93992e+12 9.37131e+12 
278 1 -36.2943 -32.6795 21.8933 4.10709e+12 -4.21458e+12 -2.2215e+12 -9.48164e+12 
279 1 -32.6795 -36.2943 21.8933 4.10709e+12 -2.2215e+12 -4.21458e+12 -9.48164e+12 
338 1 -36.2943 -32.6795 26.9455 4.10709e+12 -4.21458e+12 -2.2215e+12 -9.48164e+12 
339 1 -32.6795 -36.2943 26.9455 4.10709e+12 -2.2215e+12 -4.21458e+12 -9.48164e+12 
12278 1 -37.5458 -33.8064 21.8933 4.33255e+12 -3.92582e+12 -1.86577e+12 -9.80033e+12 
12279 1 -33.8064 -37.5458 21.8933 4.33255e+12 -1.86577e+12 -3.92582e+12 -9.80033e+12 
12338 1 -37.5458 -33.8064 26.9455 4.33255e+12 -3.92582e+12 -1.86577e+12 -9.80033e+12 
12339 1 -33.8064 -37.5458 26.9455 4.33255e+12 -1.86577e+12 -3.92582e+12 -9.80033e+12 
280 1 -28.7067 -39.5114 21.8933 4.10697e+12 -2.71404e+11 -6.16314e+12 -9.06654e+12 
340 1 -28.7067 -39.5114 26.9455 4.10697e+12 -2.71404e+11 -6.16314e+12 -9.06654e+12 
292 1 28.7067 -39.5114 21.8933 4.10697e+12 -2.71404e+11 -6.16314e+12 9.06654e+12 
352 1 28.7067 -39.5114 26.9455 4.10697e+12 -2.71404e+11 -6.16314e+12 9.06654e+12 
293 1 32.6795 -36.2943 21.8933 4.10709e+12 -2.2215e+12 -4.21458e+12 9.48164e+12 
294 1 36.2943 -32.6795 21.8933 4.10709e+12 -4.21458e+12 -2.2215e+12 9.48164e+12 
353 1 32.6795 -36.2943 26.9455 4.10709e+12 -2.2215e+12 -4.21458e+12 9.48164e+12 
354 1 36.2943 -32.6795 26.9455 4.10709e+12 -4.21458e+12 -2.2215e+12 9.48164e+12 
12293 1 33.8064 -37.5458 21.8933 4.33255e+12 -1.86577e+12 -3.92582e+12 9.80033e+12 
12294 1 37.5458 -33.8064 21.8933 4.33255e+12 -3.92582e+12 -1.86577e+12 9.80033e+12 
12353 1 33.8064 -37.5458 26.9455 4.33255e+12 -1.86577e+12 -3.92582e+12 9.80033e+12 
12354 1 37.5458 -33.8064 26.9455 4.33255e+12 -3.92582e+12 -1.86577e+12 9.80033e+12 
276 1 -42.2956 -24.4194 21.8933 4.10708e+12 -7.9848e+12 1.54892e+12 -8.25652e+12 
336 1 -42.2956 -24.4194 26.9455 4.10708e+12 -7.9848e+12 1.54892e+12 -8.25652e+12 
12275 1 -46.155 -20.5495 21.8933 4.33254e+12 -9.48931e+12 3.69804e+12 -7.32313e+12 
12276 1 -43.7541 -25.2615 21.8933 4.33255e+12 -7.82279e+12 2.03139e+12 -8.53403e+12 
12277 1 -40.8739 -29.6966 21.8933 4.33244e+12 -5.93992e+12 1.49863e+11 -9.37131e+12 
12335 1 -46.155 -20.5495 26.9455 4.33254e+12 -9.48931e+12 3.69804e+12 -7.32313e+12 
12336 1 -43.7541 -25.2615 26.9455 4.33255e+12 -7.82279e+12 2.03139e+12 -8.53403e+12 
12337 1 -40.8739 -29.6966 26.9455 4.33244e+12 -5.93992e+12 1.49863e+11 -9.37131e+12 
277 1 -39.5114 -28.7067 21.8933 4.10697e+12 -6.16314e+12 -2.71404e+11 -9.06654e+12 
337 1 -39.5114 -28.7067 26.9455 4.10697e+12 -6.16314e+12 -2.71404e+11 -9.06654e+12 
295 1 39.5114 -28.7067 21.8933 4.10697e+12 -6.16314e+12 -2.71404e+11 9.06654e+12 
355 1 39.5114 -28.7067 26.9455 4.10697e+12 -6.16314e+12 -2.71404e+11 9.06654e+12 
296 1 42.2956 -24.4194 21.8933 4.10708e+12 -7.9848e+12 1.54892e+12 8.25652e+12 
356 1 42.2956 -24.4194 26.9455 4.10708e+12 -7.9848e+12 1.54892e+12 8.25652e+12 
12295 1 40.8739 -29.6966 21.8933 4.33244e+12 -5.93992e+12 1.49863e+11 9.37131e+12 
12296 1 43.7541 -25.2615 21.8933 4.33255e+12 -7.82279e+12 2.03139e+12 8.53403e+12 
12297 1 46.155 -20.5495 21.8933 4.33254e+12 -9.48931e+12 3.69804e+12 7.32313e+12 
12355 1 40.8739 -29.6966 26.9455 4.33244e+12 -5.93992e+12 1.49863e+11 9.37131e+12 
12356 1 43.7541 -25.2615 26.9455 4.33255e+12 -7.82279e+12 2.03139e+12 8.53403e+12 
12357 1 46.155 -20.5495 26.9455 4.33254e+12 -9.48931e+12 3.69804e+12 7.32313e+12 
274 1 -46.4485 -15.092 21.8933 4.10696e+12 -1.09298e+13 4.49514e+12 -5.60346e+12 
275 1 -44.6165 -19.8645 21.8933 4.10706e+12 -9.59713e+12 3.16137e+12 -7.08498e+12 
334 1 -46.4485 -15.092 26.9455 4.10696e+12 -1.09298e+13 4.49514e+12 -5.60346e+12 
335 1 -44.6165 -19.8645 26.9455 4.10706e+12 -9.59713e+12 3.16137e+12 -7.08498e+12 
12273 1 -49.4189 -10.5043 21.8933 4.33245e+12 -1.18969e+13 6.10666e+12 -4.00781e+12 
12274 1 -48.0502 -15.6124 21.8933 4.33245e+12 -1.08668e+13 5.07665e+12 -5.79183e+12 
12333 1 -49.4189 -10.5043 26.9455 4.33245e+12 -1.18969e+13 6.10666e+12 -4.00781e+12 
12334 1 -48.0502 -15.6124 26.9455 4.33245e+12 -1.08668e+13 5.07665e+12 -5.79183e+12 
297 1 44.6165 -19.8645 21.8933 4.10706e+12 -9.59713e+12 3.16137e+12 7.08498e+12 
298 1 46.4485 -15.092 21.8933 4.10696e+12 -1.09298e+13 4.49514e+12 5.60346e+12 
357 1 44.6165 -19.8645 26.9455 4.10706e+12 -9.59713e+12 3.16137e+12 7.08498e+12 
358 1 46.4485 -15.092 26.9455 4.10696e+12 -1.09298e+13 4.49514e+12 5.60346e+12 
12298 1 48.0502 -15.6124 21.8933 4.33245e+12 -1.08668e+13 5.07665e+12 5.79183e+12 
12299 1 49.4189 -10.5043 21.8933 4.33245e+12 -1.18969e+13 6.10666e+12 4.00781e+12 
12358 1 48.0502 -15.6124 26.9455 4.33245e+12 -1.08668e+13 5.07665e+12 5.79183e+12 
12359 1 49.4189 -10.5043 26.9455 4.33245e+12 -1.18969e+13 6.10666e+12 4.00781e+12 
272 1 -48.5712 -5.10505 21.8933 4.1069e+12 -1.25414e+13 6.10755e+12 -1.98185e+12 
273 1 -47.7716 -10.1542 21.8933 4.10696e+12 -1.19264e+13 5.49164e+12 -3.87745e+12 
332 1 -48.5712 -5.10505 26.9455 4.1069e+12 -1.25414e+13 6.10755e+12 -1.98185e+12 
333 1 -47.7716 -10.1542 26.9455 4.10696e+12 -1.19264e+13 5.49164e+12 -3.87745e+12 
12272 1 -50.2461 -5.28108 21.8933 4.33238e+12 -1.25326e+13 6.74324e+12 -2.04848e+12 
12332 1 -50.2461 -5.28108 26.9455 4.33238e+12 -1.25326e+13 6.74324e+12 -2.04848e+12 
299 1 47.7716 -10.1542 21.8933 4.10696e+12 -1.19264e+13 5.49164e+12 3.87745e+12 
300 1 48.5712 -5.10505 21.8933 4.1069e+12 -1.25414e+13 6.10755e+12 1.98185e+12 
359 1 47.7716 -10.1542 26.9455 4.10696e+12 -1.19264e+13 5.49164e+12 3.87745e+12 
360 1 48.5712 -5.10505 26.9455 4.1069e+12 -1.25414e+13 6.10755e+12 1.98185e+12 
12300 1 50.2461 -5.28108 21.8933 4.33238e+12 -1.25326e+13 6.74324e+12 2.04848e+12 
12360 1 50.2461 -5.28108 26.9455 4.33238e+12 -1.25326e+13 6.74324e+12 2.04848e+12 
401 1 -24.4194 -42.2956 31.9978 4.10708e+12 1.54892e+12 -7.9848e+12 -8.25652e+12 
461 1 -24.4194 -42.2956 37.0501 4.10708e+12 1.54892e+12 -7.9848e+12 -8.25652e+12 
12400 1 -29.6966 -40.8739 31.9978 4.33244e+12 1.49863e+11 -5.93992e+12 -9.37131e+12 
12401 1 -25.2615 -43.7541 31.9978 4.33255e+12 2.03139e+12 -7.82279e+12 -8.53403e+12 
12402 1 -20.5495 -46.155 31.9978 4.33254e+12 3.69804e+12 -9.48931e+12 -7.32313e+12 
12460 1 -29.6966 -40.8739 37.0501 4.33244e+12 1.49863e+11 -5.93992e+12 -9.37131e+12 
12461 1 -25.2615 -43.7541 37.0501 4.33255e+12 2.03139e+12 -7.82279e+12 -8.53403e+12 
12462 1 -20.5495 -46.155 37.0501 4.33254e+12 3.69804e+12 -9.48931e+12 -7.32313e+12 
402 1 -19.8645 -44.6165 31.9978 4.10706e+12 3.16137e+12 -9.59713e+12 -7.08498e+12 
403 1 -15.092 -46.4485 31.9978 4.10696e+12 4.49514e+12 -1.09298e+13 -5.60346e+12 
462 1 -19.8645 -44.6165 37.0501 4.10706e+12 3.16137e+12 -9.59713e+12 -7.08498e+12 
463 1 -15.092 -46.4485 37.0501 4.10696e+12 4.49514e+12 -1.09298e+13 -5.60346e+12 